                               Psi4 1.1 release

  ==> Input File <==

--------------------------------------------------------------------------
set {
	reference rks
	basis 6-31G*
}

set_num_threads( 8 )
memory 2 gb

molecule MOL {
1 1

C	 1.300496	 -0.366580	 -1.087514
C	 1.702405	 0.174630	 0.148053
C	 2.935030	 -0.180453	 0.686821
C	 3.772255	 -1.063311	 -0.002268
C	 3.377732	 -1.598967	 -1.232166
C	 2.143398	 -1.258673	 -1.776536
C	 -0.000000	 -0.000000	 -1.658508
H	 1.037404	 0.826981	 0.707024
H	 3.238604	 0.222438	 1.647579
H	 4.734769	 -1.334621	 0.420333
H	 4.035995	 -2.272976	 -1.770622
H	 1.859727	 -1.643615	 -2.752030
N	 -0.712589	 -0.905950	 -2.322235
N	 -0.464304	 1.237690	 -1.511507
H	 -1.393465	 1.515359	 -1.805319
H	 0.141715	 1.964161	 -1.153368
H	 -1.377189	 -1.485970	 -1.827091
H	 -0.673431	 -1.006470	 -3.329771

	symmetry c1
}
set optking { dynamic_level = 1 }
set optking {
	frozen_dihedral = ("
		1 7 13 17
	")
}

ee,wfn = optimize('b3lyp-d3', return_wfn=True)
oeprop( wfn, 'DIPOLE', 'QUADRUPOLE', 'MULLIKEN_CHARGES')
f=open( 'psi4out.xyz', 'w' )
f.write( "18  " )
f.write( str(ee) + "\n" )
f.write( MOL.save_string_xyz() )
f.close()
--------------------------------------------------------------------------

    Molecular point group: c1
  Charge       = 1
  Multiplicity = 1
  Basis Set: 6-31G*
    Blend: 6-31G*
   => B3LYP Composite Functional <=
  Basis Set: (6-31G* AUX)
    Blend: CC-PVDZ-JKFIT
  @DF-RKS Final Energy:  -381.42617745780478
    Total Energy =                       -381.4261774578047834
    Molecular point group: c1
  Basis Set: 6-31G*
    Blend: 6-31G*
  Basis Set: (6-31G* AUX)
    Blend: CC-PVDZ-JKFIT
   => B3LYP Composite Functional <=
  Basis Set: 6-31G*
    Blend: 6-31G*
   => B3LYP Composite Functional <=
  Basis Set: (6-31G* AUX)
    Blend: CC-PVDZ-JKFIT
  @DF-RKS Final Energy:  -381.43328207044704
    Total Energy =                       -381.4332820704469782
  Basis Set: 6-31G*
    Blend: 6-31G*
  Basis Set: (6-31G* AUX)
  @DF-RKS Final Energy:  -381.43732385293049
    Total Energy =                       -381.4373238529305468
  @DF-RKS Final Energy:  -381.43713114246680
    Total Energy =                       -381.4371311424667965
  @DF-RKS Final Energy:  -381.44527299003198
    Total Energy =                       -381.4452729900319241
  @DF-RKS Final Energy:  -381.44752087672595
    Total Energy =                       -381.4475208767258891
  @DF-RKS Final Energy:  -381.44792109440692
    Total Energy =                       -381.4479210944069791
  @DF-RKS Final Energy:  -381.44791995018028
    Total Energy =                       -381.4479199501802782
  @DF-RKS Final Energy:  -381.44792109536274
    Total Energy =                       -381.4479210953627444
  @DF-RKS Final Energy:  -381.44811617374887
    Total Energy =                       -381.4481161737489288
  @DF-RKS Final Energy:  -381.44814200685022
    Total Energy =                       -381.4481420068502757
  @DF-RKS Final Energy:  -381.44814388319514
    Total Energy =                       -381.4481438831950868
   => B3LYP Composite Functional <=
  Basis Set: (6-31G* AUX)
    Blend: CC-PVDZ-JKFIT
  @DF-RKS Final Energy:  -381.44814371311907
    Total Energy =                       -381.4481437131190660
  Basis Set: 6-31G*
    Blend: 6-31G*
  Basis Set: (6-31G* AUX)
    Blend: CC-PVDZ-JKFIT
   => B3LYP Composite Functional <=
  Charge       = 1
  Multiplicity = 1
  Basis Set: 6-31G*
    Blend: 6-31G*
   => B3LYP Composite Functional <=
  Basis Set: (6-31G* AUX)
    Blend: CC-PVDZ-JKFIT

    Orbital Energies (a.u.)
    -----------------------

    Doubly Occupied:

       1A    -14.581827     2A    -14.542651     3A    -10.496846
       4A    -10.373767     5A    -10.361998     6A    -10.356826
       7A    -10.351235     8A    -10.344876     9A    -10.341878
      10A     -1.179879    11A     -1.081445    12A     -1.016980
      13A     -0.930598    14A     -0.905264    15A     -0.842237
      16A     -0.775734    17A     -0.772106    18A     -0.736876
      19A     -0.719595    20A     -0.693410    21A     -0.667416
      22A     -0.627773    23A     -0.604939    24A     -0.582326
      25A     -0.580676    26A     -0.561424    27A     -0.517311
      28A     -0.509336    29A     -0.499993    30A     -0.473810
      31A     -0.416983    32A     -0.408768

  @DF-RKS Final Energy:  -381.44814399060556

   => Energetics <=

    Nuclear Repulsion Energy =            416.0209231103941079
    One-Electron Energy =               -1327.2877860724631773
    Two-Electron Energy =                 574.2203570255086333
    DFT Exchange-Correlation Energy =     -44.3900174740450879
    Empirical Dispersion Energy =          -0.0116205800000000
    PCM Polarization Energy =               0.0000000000000000
    EFP Energy =                            0.0000000000000000
    Total Energy =                       -381.4481439906055584
    Molecular point group: c1
  Basis Set: 6-31G*
    Blend: 6-31G*
  Basis Set: (6-31G* AUX)
    Blend: CC-PVDZ-JKFIT
   => B3LYP Composite Functional <=

  -Total Gradient:
     Atom            X                  Y                   Z
    ------   -----------------  -----------------  -----------------
       1        0.005405495591     0.005565781580    -0.008514529537
       2        0.000019759952     0.000012303548     0.000007645615
       3       -0.000001896694    -0.000001210844     0.000003996416
       4        0.000000574300     0.000005008231     0.000014589913
       5       -0.000016929647     0.000000533660    -0.000007695460
       6        0.000018805784     0.000005613565    -0.000003729497
       7       -0.011818530301    -0.005225177451     0.012182101009
       8       -0.000004748028     0.000006342276     0.000000976117
       9       -0.000004538487     0.000003410406     0.000005908228
      10       -0.000003179141     0.000000848908    -0.000002008379
      11       -0.000005108678    -0.000005374037    -0.000006928054
      12       -0.000005978506    -0.000006047659     0.000000225163
      13        0.019140228778    -0.010159774587    -0.002468884610
      14       -0.000208012564    -0.000133122589     0.000128944220
      15        0.000001245029     0.000001877635     0.000001532535
      16        0.000010479127     0.000019053028     0.000018580803
      17       -0.012555192518     0.009998689549    -0.001440263427
      18        0.000017454602    -0.000073602566     0.000060004884

  **** Optimization is complete! (in 5 steps) ****
    Final optimized geometry and variables:
    Molecular point group: c1

    Geometry (in Angstrom), charge = 1, multiplicity = 1:

    C           -0.193151201756     0.035401822808    -0.032383624125
    C            0.258865795429     0.661646698495     1.153725325580
    C            1.504696529723     0.342862285666     1.671695516067
    C            2.307368523743    -0.607470379452     1.024513921484
    C            1.860282046920    -1.246730557660    -0.136268602227
    C            0.612868438891    -0.937510007447    -0.664907370124
    C           -1.472952063471     0.376117082005    -0.616836507355
    H           -0.381489638153     1.354469026419     1.693512043596
    H            1.849162872212     0.815406863160     2.585679236576
    H            3.282669123403    -0.853552068739     1.433649152463
    H            2.488567732027    -1.979920577635    -0.631308137596
    H            0.266399601343    -1.405240372873    -1.579217570016
    N           -2.045512949973    -0.478094570041    -1.544653215746
    N           -1.982490141411     1.590426304555    -0.461309909844
    H           -2.906020040545     1.832501024569    -0.803636862654
    H           -1.453746257470     2.329483699628    -0.010315817348
    H           -2.656039921516    -1.196802338001    -1.155223766490
    H           -2.604266833784     0.028550475485    -2.232479722415

  Mulliken Charges: (a.u.)
   Center  Symbol    Alpha    Beta     Spin     Total
       1     C     2.94518  2.94518  0.00000  0.10963
       2     C     3.08443  3.08443  0.00000 -0.16885
       3     C     3.06260  3.06260  0.00000 -0.12520
       4     C     3.04871  3.04871  0.00000 -0.09742
       5     C     3.06247  3.06247  0.00000 -0.12495
       6     C     3.06840  3.06840  0.00000 -0.13679
       7     C     2.77127  2.77127  0.00000  0.45746
       8     H     0.41610  0.41610  0.00000  0.16779
       9     H     0.40433  0.40433  0.00000  0.19134
      10     H     0.40161  0.40161  0.00000  0.19677
      11     H     0.40364  0.40364  0.00000  0.19272
      12     H     0.39978  0.39978  0.00000  0.20044
      13     N     3.86077  3.86077  0.00000 -0.72153
      14     N     3.84280  3.84280  0.00000 -0.68561
      15     H     0.30412  0.30412  0.00000  0.39176
      16     H     0.29959  0.29959  0.00000  0.40081
      17     H     0.30471  0.30471  0.00000  0.39058
      18     H     0.31948  0.31948  0.00000  0.36105

   Total alpha = 32.00000, Total beta = 32.00000, Total charge =  1.00000

*** Psi4 exiting successfully. Buy a developer a beer!
