                               Psi4 1.1 release

  ==> Input File <==

--------------------------------------------------------------------------
set {
	reference rks
	basis 6-31G*
}

set_num_threads( 8 )
memory 2 gb

molecule MOL {
1 1

C	 -0.108532	 1.419375	 -2.012485
C	 1.029377	 2.245869	 -1.956497
C	 0.921179	 3.590282	 -2.297914
C	 -0.314812	 4.117079	 -2.685262
C	 -1.448007	 3.299534	 -2.737345
C	 -1.350327	 1.951482	 -2.407292
C	 -0.000000	 -0.000000	 -1.658508
H	 1.999785	 1.831714	 -1.697610
H	 1.801213	 4.224633	 -2.271985
H	 -0.395138	 5.167578	 -2.947244
H	 -2.408311	 3.714941	 -3.025072
H	 -2.241564	 1.330246	 -2.407964
N	 -0.712589	 -0.905950	 -2.322235
N	 0.810806	 -0.378524	 -0.674447
H	 0.990967	 -1.350805	 -0.453136
H	 1.224644	 0.316357	 -0.066860
H	 -1.377189	 -1.485970	 -1.827091
H	 -0.673431	 -1.006470	 -3.329771

	symmetry c1
}
set optking { dynamic_level = 1 }
set optking {
	frozen_dihedral = ("
		1 7 13 17
	")
}

ee,wfn = optimize('b3lyp-d3', return_wfn=True)
oeprop( wfn, 'DIPOLE', 'QUADRUPOLE', 'MULLIKEN_CHARGES')
f=open( 'psi4out.xyz', 'w' )
f.write( "18  " )
f.write( str(ee) + "\n" )
f.write( MOL.save_string_xyz() )
f.close()
--------------------------------------------------------------------------

    Molecular point group: c1
  Charge       = 1
  Multiplicity = 1
  Basis Set: 6-31G*
    Blend: 6-31G*
   => B3LYP Composite Functional <=
  Basis Set: (6-31G* AUX)
    Blend: CC-PVDZ-JKFIT
  @DF-RKS Final Energy:  -381.44714033756071
    Total Energy =                       -381.4471403375607110
    Molecular point group: c1
  Basis Set: 6-31G*
    Blend: 6-31G*
  Basis Set: (6-31G* AUX)
    Blend: CC-PVDZ-JKFIT
   => B3LYP Composite Functional <=
  Basis Set: 6-31G*
    Blend: 6-31G*
   => B3LYP Composite Functional <=
  Basis Set: (6-31G* AUX)
    Blend: CC-PVDZ-JKFIT
  @DF-RKS Final Energy:  -381.45489493666287
    Total Energy =                       -381.4548949366628108
  Basis Set: 6-31G*
    Blend: 6-31G*
  Basis Set: (6-31G* AUX)
  @DF-RKS Final Energy:  -381.45743778198278
    Total Energy =                       -381.4574377819827760
  @DF-RKS Final Energy:  -381.46031618823292
    Total Energy =                       -381.4603161882329232
  @DF-RKS Final Energy:  -381.46053286017565
    Total Energy =                       -381.4605328601756469
  @DF-RKS Final Energy:  -381.46054918057285
    Total Energy =                       -381.4605491805729116
   => B3LYP Composite Functional <=
  Basis Set: (6-31G* AUX)
    Blend: CC-PVDZ-JKFIT
  @DF-RKS Final Energy:  -381.46055040698428
    Total Energy =                       -381.4605504069842823
  Basis Set: 6-31G*
    Blend: 6-31G*
  Basis Set: (6-31G* AUX)
    Blend: CC-PVDZ-JKFIT
   => B3LYP Composite Functional <=
  Charge       = 1
  Multiplicity = 1
  Basis Set: 6-31G*
    Blend: 6-31G*
   => B3LYP Composite Functional <=
  Basis Set: (6-31G* AUX)
    Blend: CC-PVDZ-JKFIT

    Orbital Energies (a.u.)
    -----------------------

    Doubly Occupied:

       1A    -14.572332     2A    -14.552036     3A    -10.496146
       4A    -10.377270     5A    -10.363307     6A    -10.362153
       7A    -10.351017     8A    -10.346162     9A    -10.346079
      10A     -1.179988    11A     -1.085732    12A     -1.019302
      13A     -0.929799    14A     -0.908123    15A     -0.843237
      16A     -0.784164    17A     -0.771983    18A     -0.739530
      19A     -0.729023    20A     -0.681830    21A     -0.674328
      22A     -0.633188    23A     -0.614509    24A     -0.587998
      25A     -0.583504    26A     -0.567251    27A     -0.523310
      28A     -0.511684    29A     -0.503245    30A     -0.470472
      31A     -0.418892    32A     -0.411656

  @DF-RKS Final Energy:  -381.46055049007720

   => Energetics <=

    Nuclear Repulsion Energy =            416.5374395506950123
    One-Electron Energy =               -1328.1742020962824427
    Two-Electron Energy =                 574.5869709329688249
    DFT Exchange-Correlation Energy =     -44.3987612374585794
    Empirical Dispersion Energy =          -0.0119976400000000
    PCM Polarization Energy =               0.0000000000000000
    EFP Energy =                            0.0000000000000000
    Total Energy =                       -381.4605504900771962
    Molecular point group: c1
  Basis Set: 6-31G*
    Blend: 6-31G*
  Basis Set: (6-31G* AUX)
    Blend: CC-PVDZ-JKFIT
   => B3LYP Composite Functional <=

  -Total Gradient:
     Atom            X                  Y                   Z
    ------   -----------------  -----------------  -----------------
       1       -0.006180032097     0.001014331407     0.005994892326
       2        0.000011812688    -0.000008072835    -0.000019829469
       3       -0.000012027999     0.000005713025    -0.000001084690
       4        0.000008325126     0.000005044361    -0.000002211334
       5       -0.000005864007     0.000001837227     0.000003369267
       6        0.000033179593    -0.000013155682     0.000000842707
       7        0.006397543426     0.001225219716    -0.009999976422
       8       -0.000002783060    -0.000004544845     0.000009755527
       9        0.000000774681    -0.000001440220     0.000004147748
      10        0.000000960959    -0.000002702425    -0.000001200985
      11       -0.000001310123    -0.000005238307     0.000000715424
      12       -0.000012749356    -0.000000314793    -0.000000923505
      13        0.008631749074    -0.009997514178     0.005777548822
      14        0.000030915055    -0.000034115921    -0.000036562709
      15        0.000016684380     0.000006353987    -0.000005005415
      16        0.000012677354     0.000003313564    -0.000024532643
      17       -0.008951722995     0.007885352269    -0.001825417127
      18        0.000025370918    -0.000105295655     0.000129087901

  **** Optimization is complete! (in 8 steps) ****
    Final optimized geometry and variables:
    Molecular point group: c1

    Geometry (in Angstrom), charge = 1, multiplicity = 1:

    C            0.038431794598    -0.188945128655     0.017811077489
    C            1.148471474086     0.673817796959     0.139363851154
    C            1.014685497033     2.021246873149    -0.171194962870
    C           -0.219992892772     2.518340653532    -0.604584603052
    C           -1.322935972744     1.667796514281    -0.734301790031
    C           -1.197953586478     0.316153643833    -0.434124190769
    C            0.155737609655    -1.597137861257     0.375701965988
    H            2.119986824805     0.280881332194     0.426529830291
    H            1.871387387696     2.682362555581    -0.091291251796
    H           -0.321406796761     3.572021540328    -0.846051889083
    H           -2.279614836995     2.060863714884    -1.062408326535
    H           -2.067246777027    -0.331108782696    -0.501360521092
    N           -0.584335465929    -2.563861645820    -0.219494332617
    N            0.942721545989    -1.972739873012     1.375736710216
    H            1.120004036616    -2.953788859050     1.563170814486
    H            1.379420895451    -1.289939442002     1.982303449956
    H           -1.202177042099    -3.130050508431     0.355238854802
    H           -1.032958924386    -2.289205541439    -1.086919073625

  Mulliken Charges: (a.u.)
   Center  Symbol    Alpha    Beta     Spin     Total
       1     C     2.94649  2.94649  0.00000  0.10701
       2     C     3.08216  3.08216  0.00000 -0.16432
       3     C     3.06207  3.06207  0.00000 -0.12415
       4     C     3.05009  3.05009  0.00000 -0.10018
       5     C     3.06215  3.06215  0.00000 -0.12430
       6     C     3.07944  3.07944  0.00000 -0.15888
       7     C     2.75213  2.75213  0.00000  0.49574
       8     H     0.41253  0.41253  0.00000  0.17494
       9     H     0.40373  0.40373  0.00000  0.19253
      10     H     0.40180  0.40180  0.00000  0.19639
      11     H     0.40393  0.40393  0.00000  0.19213
      12     H     0.41737  0.41737  0.00000  0.16525
      13     N     3.86398  3.86398  0.00000 -0.72796
      14     N     3.84812  3.84812  0.00000 -0.69623
      15     H     0.30069  0.30069  0.00000  0.39862
      16     H     0.30066  0.30066  0.00000  0.39869
      17     H     0.30446  0.30446  0.00000  0.39108
      18     H     0.30818  0.30818  0.00000  0.38363

   Total alpha = 32.00000, Total beta = 32.00000, Total charge =  1.00000

*** Psi4 exiting successfully. Buy a developer a beer!
