                              Psi4 1.0.54 Driver

  ==> Input File <==

--------------------------------------------------------------------------
set_num_threads(1)
set_memory(3145728000)

set { reference rks }
set { basis 6-31G* }

molecule MOL {
    1 1
    noreorient
    nocom
    symmetry c1
    C    0.000000   0.000000  -0.177864
    C    0.036678   1.219374   0.524165
    C    0.031764   1.213119   1.915444
    C   -0.000000  -0.000000   2.610107
    C   -0.031764  -1.213119   1.915444
    C   -0.036677  -1.219374   0.524165
    C    0.000000  -0.000000  -1.644734
    H    0.018170   2.164705  -0.010853
    H    0.042402   2.152895   2.457886
    H   -0.000000  -0.000000   3.695756
    H   -0.042402  -2.152895   2.457886
    H   -0.018170  -2.164705  -0.010853
    N   -0.712590  -0.905950  -2.308460
    N    0.712590   0.905950  -2.308461
    H    0.673432   1.006469  -3.315997
    H    1.377190   1.485970  -1.813317
    H   -0.280634  -1.443522  -3.048538
    H   -1.668428  -1.139403  -2.066303
}

set optking { frozen_dihedral = (" 1 7 13 17 ") }

set optking { dynamic_level = 1
 geom_maxiter = 250
 print_trajectory_xyz_file = True }

energy, wfn = optimize('B3LYP-D3', return_wfn=True)

import os
os.chdir(os.environ['HTMD_PSI4_WORKDIR'])

oeprop(wfn, 'DIPOLE', 'QUADRUPOLE', 'MULLIKEN_CHARGES')

with open('psi4out.xyz', 'w') as f:
    f.write('18 ' )
    f.write('%.12f\n' % energy)
    f.write(MOL.save_string_xyz())
--------------------------------------------------------------------------

    Molecular point group: c1
  Charge       = 1
  Multiplicity = 1
  Basis Set: 6-31G*
   => B3LYP-D3 Composite Functional <=
  Basis Set:
  @DF-RKS Final Energy:  -381.45483207888344
    Total Energy =                       -381.4548320788834985
    Molecular point group: c1
  Basis Set: 6-31G*
  Basis Set:
   => B3LYP-D3 Composite Functional <=
  Basis Set: 6-31G*
   => B3LYP-D3 Composite Functional <=
  Basis Set:
  @DF-RKS Final Energy:  -381.46045137839656
    Total Energy =                       -381.4604513783964990
  Basis Set: 6-31G*
  Basis Set:
   => B3LYP-D3 Composite Functional <=
  Basis Set: 6-31G*
   => B3LYP-D3 Composite Functional <=
  Basis Set:
  @DF-RKS Final Energy:  -381.46271343713886
    Total Energy =                       -381.4627134371388593
  Basis Set: 6-31G*
  Basis Set:
  @DF-RKS Final Energy:  -381.46378239765119
    Total Energy =                       -381.4637823976510731
   => B3LYP-D3 Composite Functional <=
  Basis Set:
  @DF-RKS Final Energy:  -381.46381971979378
    Total Energy =                       -381.4638197197936051
  Basis Set: 6-31G*
  Basis Set:
   => B3LYP-D3 Composite Functional <=
  Basis Set: 6-31G*
   => B3LYP-D3 Composite Functional <=
  Basis Set:
  @DF-RKS Final Energy:  -381.46382703982960
    Total Energy =                       -381.4638270398296527
  Basis Set: 6-31G*
  Basis Set:
   => B3LYP-D3 Composite Functional <=
  Charge       = 1
  Multiplicity = 1
  Basis Set: 6-31G*
   => B3LYP-D3 Composite Functional <=
  Basis Set:

    Orbital Energies (a.u.)
    -----------------------

    Doubly Occupied:

       1A    -14.570445     2A    -14.556597     3A    -10.496037
       4A    -10.376136     5A    -10.361739     6A    -10.360531
       7A    -10.349108     8A    -10.344799     9A    -10.344649
      10A     -1.180658    11A     -1.087262    12A     -1.018043
      13A     -0.928923    14A     -0.906678    15A     -0.843540
      16A     -0.784167    17A     -0.771831    18A     -0.740063
      19A     -0.731126    20A     -0.683566    21A     -0.673233
      22A     -0.631418    23A     -0.615009    24A     -0.586693
      25A     -0.582493    26A     -0.569410    27A     -0.522423
      28A     -0.510070    29A     -0.501955    30A     -0.471034
      31A     -0.417295    32A     -0.410214

  @DF-RKS Final Energy:  -381.46382791058659

   => Energetics <=

    Nuclear Repulsion Energy =            416.6555503613315068
    One-Electron Energy =               -1328.4398218666951834
    Two-Electron Energy =                 574.7333046361732158
    DFT Exchange-Correlation Energy =     -44.4008821313960809
    Empirical Dispersion Energy =          -0.0119789100000000
    PCM Polarization Energy =               0.0000000000000000
    EFP Energy =                            0.0000000000000000
    Total Energy =                       -381.4638279105865308
    Molecular point group: c1
  Basis Set: 6-31G*
  Basis Set:
   => B3LYP-D3 Composite Functional <=

  -Total Gradient:
     Atom            X                  Y                   Z
    ------   -----------------  -----------------  -----------------
       1        0.005818107240    -0.004315360347    -0.000111862409
       2        0.000052537310     0.000015734939     0.000020518221
       3       -0.000023166498    -0.000004268535    -0.000022682945
       4        0.000010567420    -0.000000904173     0.000007590317
       5       -0.000008112448    -0.000010674046    -0.000011418056
       6        0.000028876142     0.000003686305     0.000007265103
       7       -0.008134875873     0.003930716960     0.002638057246
       8        0.000001820426    -0.000003948330    -0.000011717515
       9       -0.000003598586     0.000001538978    -0.000003073727
      10        0.000001833540    -0.000003169792    -0.000001873324
      11       -0.000009425610     0.000000361245    -0.000000679379
      12        0.000001714104    -0.000004240295    -0.000007277305
      13       -0.000562310116     0.007738040045    -0.009269618320
      14       -0.000013160592     0.000105113569    -0.000012484917
      15       -0.000000965679    -0.000011101401     0.000006749952
      16       -0.000000427119    -0.000024417653    -0.000010549875
      17        0.002867238490    -0.007355330102     0.006702974265
      18       -0.000024172568    -0.000059432131     0.000051959699

  **** Optimization is complete! (in 7 steps) ****
    Final optimized geometry and variables:
    Molecular point group: c1

    Geometry (in Angstrom), charge = 1, multiplicity = 1:

    C           -0.043169327383     0.029680940997    -0.187121318025
    C            0.052882034700     1.239305415857     0.531529224018
    C            0.076806944284     1.217805929986     1.920806885461
    C            0.007434631551    -0.002931566116     2.601600400539
    C           -0.091672679060    -1.205873612210     1.894884215178
    C           -0.125075986137    -1.195420092558     0.504857514058
    C           -0.039450333015     0.038258657570    -1.646655136723
    H            0.057701137653     2.190570769811     0.006491350670
    H            0.135412056967     2.149002602660     2.474760810137
    H            0.027689917100    -0.016225455220     3.687054585655
    H           -0.134883587519    -2.150048431906     2.427887336318
    H           -0.162216064995    -2.135092057397    -0.038372983741
    N           -0.716303555514    -0.878712272837    -2.365387488416
    N            0.696810248818     0.923342080237    -2.309193740836
    H            0.626182458958     1.025685682172    -3.315608515524
    H            1.359919813368     1.513053059720    -1.822662870875
    H           -0.249400664557    -1.379740411728    -3.114860916523
    H           -1.377106045218    -1.453147239037    -1.854536351371

  Mulliken Charges: (a.u.)
   Center  Symbol    Alpha    Beta     Spin     Total
       1     C     2.94944  2.94944  0.00000  0.10112
       2     C     3.08184  3.08184  0.00000 -0.16368
       3     C     3.06219  3.06219  0.00000 -0.12439
       4     C     3.05040  3.05040  0.00000 -0.10079
       5     C     3.06225  3.06225  0.00000 -0.12449
       6     C     3.07994  3.07994  0.00000 -0.15988
       7     C     2.74394  2.74394  0.00000  0.51212
       8     H     0.41270  0.41270  0.00000  0.17459
       9     H     0.40412  0.40412  0.00000  0.19175
      10     H     0.40229  0.40229  0.00000  0.19541
      11     H     0.40432  0.40432  0.00000  0.19137
      12     H     0.41690  0.41690  0.00000  0.16619
      13     N     3.86337  3.86337  0.00000 -0.72673
      14     N     3.85281  3.85281  0.00000 -0.70562
      15     H     0.30210  0.30210  0.00000  0.39579
      16     H     0.30052  0.30052  0.00000  0.39896
      17     H     0.30489  0.30489  0.00000  0.39022
      18     H     0.30597  0.30597  0.00000  0.38806

   Total alpha = 32.00000, Total beta = 32.00000, Total charge =  1.00000

*** Psi4 exiting successfully. Buy a developer a beer!
