                               Psi4 1.1 release

  ==> Input File <==

--------------------------------------------------------------------------
set_num_threads(1)
set_memory(4203741184)

set { reference rks }
set { basis cc-pVDZ }

molecule MOL {
    0 1
    noreorient
    nocom
    symmetry c1
    O    1.141000   0.017000   0.083000
    C    2.558000   0.086000  -0.005000
    C    3.192000  -0.789000   1.067000
    O    4.610000  -0.719000   0.979000
    H    0.789000   0.590000  -0.620000
    H    2.874000   1.128000   0.115000
    H    2.871000  -0.243000  -1.001000
    H    2.876000  -1.830000   0.947000
    H    2.879000  -0.459000   2.064000
    H    4.851232   0.214249   1.112189
}

set optking { frozen_dihedral = (" 2 3 4 10 ") }

energy, wfn = energy('B3LYP-D3', return_wfn=True)

import os
os.chdir(os.environ['HTMD_PSI4_WORKDIR'])

oeprop(wfn, 'DIPOLE', 'QUADRUPOLE', 'MULLIKEN_CHARGES')

with open('psi4out.xyz', 'w') as f:
    f.write('10 ' )
    f.write('%.12f\n' % energy)
    f.write(MOL.save_string_xyz())
--------------------------------------------------------------------------

    Molecular point group: c1

    Geometry (in Angstrom), charge = 0, multiplicity = 1:

       Center              X                  Y                   Z               Mass
    ------------   -----------------  -----------------  -----------------  -----------------
           O          1.141000000000     0.017000000000     0.083000000000    15.994914619560
           C          2.558000000000     0.086000000000    -0.005000000000    12.000000000000
           C          3.192000000000    -0.789000000000     1.067000000000    12.000000000000
           O          4.610000000000    -0.719000000000     0.979000000000    15.994914619560
           H          0.789000000000     0.590000000000    -0.620000000000     1.007825032070
           H          2.874000000000     1.128000000000     0.115000000000     1.007825032070
           H          2.871000000000    -0.243000000000    -1.001000000000     1.007825032070
           H          2.876000000000    -1.830000000000     0.947000000000     1.007825032070
           H          2.879000000000    -0.459000000000     2.064000000000     1.007825032070
           H          4.851232000000     0.214249000000     1.112189000000     1.007825032070

  Charge       = 0
  Multiplicity = 1
  Basis Set: CC-PVDZ
    Blend: CC-PVDZ
   => B3LYP Composite Functional <=
  Basis Set: (CC-PVDZ AUX)
    Blend: CC-PVDZ-JKFIT

    Orbital Energies (a.u.)
    -----------------------

    Doubly Occupied:

       1A    -19.134989     2A    -19.134498     3A    -10.229307
       4A    -10.227312     5A     -1.022523     6A     -1.011145
       7A     -0.731763     8A     -0.617967     9A     -0.519094
      10A     -0.495627    11A     -0.456311    12A     -0.429402
      13A     -0.398270    14A     -0.345356    15A     -0.324692
      16A     -0.269192    17A     -0.267987

  @DF-RKS Final Energy:  -230.25870177616440

   => Energetics <=

    Nuclear Repulsion Energy =            129.9005511254518694
    One-Electron Energy =                -571.4550928829337408
    Two-Electron Energy =                 235.8384490139671072
    DFT Exchange-Correlation Energy =     -24.5379582726496537
    Empirical Dispersion Energy =          -0.0046507600000000
    PCM Polarization Energy =               0.0000000000000000
    EFP Energy =                            0.0000000000000000
    Total Energy =                       -230.2587017761644006

  Mulliken Charges: (a.u.)
   Center  Symbol    Alpha    Beta     Spin     Total
       1     O     4.13933  4.13933  0.00000 -0.27865
       2     C     2.94725  2.94725  0.00000  0.10549
       3     C     2.92686  2.92686  0.00000  0.14628
       4     O     4.13903  4.13903  0.00000 -0.27806
       5     H     0.42815  0.42815  0.00000  0.14371
       6     H     0.50771  0.50771  0.00000 -0.01542
       7     H     0.49794  0.49794  0.00000  0.00413
       8     H     0.48562  0.48562  0.00000  0.02876
       9     H     0.49695  0.49695  0.00000  0.00610
      10     H     0.43117  0.43117  0.00000  0.13766

   Total alpha = 17.00000, Total beta = 17.00000, Total charge =  0.00000

*** Psi4 exiting successfully. Buy a developer a beer!
