                               Psi4 1.1 release

  ==> Input File <==

--------------------------------------------------------------------------
set {
	reference rks
	basis 6-31G*
}

set_num_threads( 8 )
memory 2 gb

molecule MOL {
1 1

C	 -0.000000	 -0.000000	 -0.191639
C	 0.576240	 1.075252	 0.510391
C	 0.569054	 1.071842	 1.901670
C	 -0.000000	 0.000000	 2.596333
C	 -0.569054	 -1.071842	 1.901670
C	 -0.576241	 -1.075251	 0.510391
C	 -0.000000	 -0.000000	 -1.658508
H	 0.980953	 1.929769	 -0.024627
H	 0.997382	 1.908398	 2.444112
H	 -0.000000	 0.000000	 3.681982
H	 -0.997381	 -1.908399	 2.444112
H	 -0.980953	 -1.929769	 -0.024627
N	 -0.712589	 -0.905950	 -2.322235
N	 0.712590	 0.905950	 -2.322235
H	 0.673432	 1.006470	 -3.329771
H	 1.377190	 1.485970	 -1.827091
H	 -1.377189	 -1.485970	 -1.827091
H	 -0.673431	 -1.006470	 -3.329771

	symmetry c1
}
set optking { dynamic_level = 1 }
set optking {
	frozen_dihedral = ("
		2 1 7 13
	")
}

ee,wfn = optimize('b3lyp-d3', return_wfn=True)
oeprop( wfn, 'DIPOLE', 'QUADRUPOLE', 'MULLIKEN_CHARGES')
f=open( 'psi4out.xyz', 'w' )
f.write( "18  " )
f.write( str(ee) + "\n" )
f.write( MOL.save_string_xyz() )
f.close()
--------------------------------------------------------------------------

    Molecular point group: c1
  Charge       = 1
  Multiplicity = 1
  Basis Set: 6-31G*
    Blend: 6-31G*
   => B3LYP Composite Functional <=
  Basis Set: (6-31G* AUX)
    Blend: CC-PVDZ-JKFIT
  @DF-RKS Final Energy:  -381.46614216756439
    Total Energy =                       -381.4661421675644419
    Molecular point group: c1
  Basis Set: 6-31G*
    Blend: 6-31G*
  Basis Set: (6-31G* AUX)
    Blend: CC-PVDZ-JKFIT
   => B3LYP Composite Functional <=
  Basis Set: 6-31G*
    Blend: 6-31G*
   => B3LYP Composite Functional <=
  Basis Set: (6-31G* AUX)
    Blend: CC-PVDZ-JKFIT
  @DF-RKS Final Energy:  -381.46707737785033
    Total Energy =                       -381.4670773778502735
  Basis Set: 6-31G*
    Blend: 6-31G*
  Basis Set: (6-31G* AUX)
  @DF-RKS Final Energy:  -381.46750244803457
    Total Energy =                       -381.4675024480346224
  @DF-RKS Final Energy:  -381.46751756300819
    Total Energy =                       -381.4675175630081867
  @DF-RKS Final Energy:  -381.46752536088081
    Total Energy =                       -381.4675253608807566
   => B3LYP Composite Functional <=
  Basis Set: (6-31G* AUX)
    Blend: CC-PVDZ-JKFIT
  @DF-RKS Final Energy:  -381.46752668448147
    Total Energy =                       -381.4675266844815269
  Basis Set: 6-31G*
    Blend: 6-31G*
  Basis Set: (6-31G* AUX)
    Blend: CC-PVDZ-JKFIT
   => B3LYP Composite Functional <=
  Charge       = 1
  Multiplicity = 1
  Basis Set: 6-31G*
    Blend: 6-31G*
   => B3LYP Composite Functional <=
  Basis Set: (6-31G* AUX)
    Blend: CC-PVDZ-JKFIT

    Orbital Energies (a.u.)
    -----------------------

    Doubly Occupied:

       1A    -14.565697     2A    -14.565363     3A    -10.497766
       4A    -10.376788     5A    -10.360041     6A    -10.359953
       7A    -10.346228     8A    -10.342682     9A    -10.342529
      10A     -1.183034    11A     -1.089410    12A     -1.016664
      13A     -0.928536    14A     -0.905247    15A     -0.847501
      16A     -0.786150    17A     -0.776127    18A     -0.737594
      19A     -0.736336    20A     -0.688109    21A     -0.669375
      22A     -0.630698    23A     -0.611334    24A     -0.597584
      25A     -0.581751    26A     -0.576302    27A     -0.518394
      28A     -0.509147    29A     -0.500636    30A     -0.471445
      31A     -0.413452    32A     -0.407821

  @DF-RKS Final Energy:  -381.46752677858115

   => Energetics <=

    Nuclear Repulsion Energy =            416.7439559146676515
    One-Electron Energy =               -1328.5953778191947094
    Two-Electron Energy =                 574.8027083093712690
    DFT Exchange-Correlation Energy =     -44.4072268434252351
    Empirical Dispersion Energy =          -0.0115863400000000
    PCM Polarization Energy =               0.0000000000000000
    EFP Energy =                            0.0000000000000000
    Total Energy =                       -381.4675267785810888
    Molecular point group: c1
  Basis Set: 6-31G*
    Blend: 6-31G*
  Basis Set: (6-31G* AUX)
    Blend: CC-PVDZ-JKFIT
   => B3LYP Composite Functional <=

  -Total Gradient:
     Atom            X                  Y                   Z
    ------   -----------------  -----------------  -----------------
       1       -0.004463018928     0.001969993453    -0.000145365326
       2        0.004268314472    -0.002344791915     0.000156298198
       3        0.000004469608    -0.000000867665    -0.000011978413
       4       -0.000001691484    -0.000009205512    -0.000004336672
       5        0.000018818897     0.000000177823     0.000005662266
       6       -0.000024706651     0.000014881623     0.000006455006
       7       -0.003830687702     0.003644236444    -0.000122989727
       8       -0.000005817721     0.000001919330    -0.000005240230
       9       -0.000000439902     0.000001920119    -0.000003465916
      10       -0.000000492018     0.000001548605    -0.000001128464
      11       -0.000002877547    -0.000000778629    -0.000004326580
      12       -0.000002390104    -0.000000440061     0.000002836597
      13        0.004032457027    -0.003261200181     0.000121743428
      14        0.000021134822    -0.000027124319    -0.000010172221
      15       -0.000002859150     0.000004224020     0.000000633286
      16       -0.000006288448     0.000009017027     0.000010326977
      17        0.000000491113     0.000000850130    -0.000001098614
      18       -0.000005463528    -0.000000299726    -0.000000089925

  **** Optimization is complete! (in 7 steps) ****
    Final optimized geometry and variables:
    Molecular point group: c1

    Geometry (in Angstrom), charge = 1, multiplicity = 1:

    C           -0.054008307991     0.030975532807    -0.192776979943
    C            0.516966195139     1.103289382025     0.522094630545
    C            0.551804056732     1.081360068654     1.911254769538
    C            0.028790802402    -0.011948380748     2.607790038920
    C           -0.524863335045    -1.088680262201     1.909839073217
    C           -0.557733160723    -1.075751864888     0.520121399591
    C           -0.021648715188     0.012741616579    -1.660658013349
    H            0.878715457992     1.990664912976     0.010880744661
    H            0.979253004041     1.920036237483     2.450862352577
    H            0.057333379610    -0.026797219936     3.692911128047
    H           -0.914893466543    -1.946533137293     2.447676807529
    H           -0.935035057083    -1.953809760988     0.005194091881
    N           -0.725955169627    -0.887693562580    -2.346743284148
    N            0.766340928359     0.849540236746    -2.334019731158
    H            0.773140312515     0.890282015240    -3.345765459261
    H            1.459640039075     1.407262591210    -1.856052405563
    H           -1.472287775570    -1.404873229304    -1.903543793894
    H           -0.664344992447    -0.965106230471    -3.354576395480

  Mulliken Charges: (a.u.)
   Center  Symbol    Alpha    Beta     Spin     Total
       1     C     2.93437  2.93437  0.00000  0.13126
       2     C     3.08874  3.08874  0.00000 -0.17748
       3     C     3.06166  3.06166  0.00000 -0.12332
       4     C     3.05128  3.05128  0.00000 -0.10256
       5     C     3.06108  3.06108  0.00000 -0.12215
       6     C     3.08494  3.08494  0.00000 -0.16988
       7     C     2.70845  2.70845  0.00000  0.58310
       8     H     0.41810  0.41810  0.00000  0.16380
       9     H     0.40500  0.40500  0.00000  0.19000
      10     H     0.40281  0.40281  0.00000  0.19437
      11     H     0.40497  0.40497  0.00000  0.19006
      12     H     0.41898  0.41898  0.00000  0.16204
      13     N     3.87293  3.87293  0.00000 -0.74587
      14     N     3.87288  3.87288  0.00000 -0.74576
      15     H     0.30595  0.30595  0.00000  0.38809
      16     H     0.30069  0.30069  0.00000  0.39861
      17     H     0.30110  0.30110  0.00000  0.39781
      18     H     0.30607  0.30607  0.00000  0.38786

   Total alpha = 32.00000, Total beta = 32.00000, Total charge =  1.00000

*** Psi4 exiting successfully. Buy a developer a beer!
