                               Psi4 1.1 release

  ==> Input File <==

--------------------------------------------------------------------------
set_num_threads(1)
set_memory(3145728000)

set { reference rks }
set { basis 6-31G* }

molecule MOL {
    1 1
    noreorient
    nocom
    symmetry c1
    C    0.000000   0.000000  -0.177864
    C    0.036678   1.219374   0.524165
    C    0.031764   1.213119   1.915444
    C   -0.000000  -0.000000   2.610107
    C   -0.031764  -1.213119   1.915444
    C   -0.036677  -1.219374   0.524165
    C    0.000000  -0.000000  -1.644734
    H    0.018170   2.164705  -0.010853
    H    0.042402   2.152895   2.457886
    H   -0.000000  -0.000000   3.695756
    H   -0.042402  -2.152895   2.457886
    H   -0.018170  -2.164705  -0.010853
    N   -0.234187  -1.128577  -2.308460
    N    0.234187   1.128577  -2.308461
    H    0.154336   1.201112  -3.315997
    H    0.570662   1.943991  -1.813317
    H   -0.570662  -1.943991  -1.813316
    H   -0.154337  -1.201113  -3.315997
}

set optking { frozen_dihedral = (" 2 1 7 13 ") }

set optking { dynamic_level = 1
 geom_maxiter = 250
 print_trajectory_xyz_file = True }

energy, wfn = optimize('B3LYP-D3', return_wfn=True)

import os
os.chdir(os.environ['HTMD_PSI4_WORKDIR'])

oeprop(wfn, 'DIPOLE', 'QUADRUPOLE', 'MULLIKEN_CHARGES')

with open('psi4out.xyz', 'w') as f:
    f.write('18 ' )
    f.write('%.12f\n' % energy)
    f.write(MOL.save_string_xyz())
--------------------------------------------------------------------------

    Molecular point group: c1
  Charge       = 1
  Multiplicity = 1
  Basis Set: 6-31G*
    Blend: 6-31G*
   => B3LYP Composite Functional <=
  Basis Set: (6-31G* AUX)
    Blend: CC-PVDZ-JKFIT
  @DF-RKS Final Energy:  -381.46614216335917
    Total Energy =                       -381.4661421633591658
    Molecular point group: c1
  Basis Set: 6-31G*
    Blend: 6-31G*
  Basis Set: (6-31G* AUX)
    Blend: CC-PVDZ-JKFIT
   => B3LYP Composite Functional <=
  Basis Set: 6-31G*
    Blend: 6-31G*
   => B3LYP Composite Functional <=
  Basis Set: (6-31G* AUX)
    Blend: CC-PVDZ-JKFIT
  @DF-RKS Final Energy:  -381.46707736872378
    Total Energy =                       -381.4670773687238352
  Basis Set: 6-31G*
    Blend: 6-31G*
  Basis Set: (6-31G* AUX)
  @DF-RKS Final Energy:  -381.46750244294321
    Total Energy =                       -381.4675024429432142
  @DF-RKS Final Energy:  -381.46751755886231
    Total Energy =                       -381.4675175588623688
  @DF-RKS Final Energy:  -381.46752535574711
    Total Energy =                       -381.4675253557470569
   => B3LYP Composite Functional <=
  Basis Set: (6-31G* AUX)
    Blend: CC-PVDZ-JKFIT
  @DF-RKS Final Energy:  -381.46752667870919
    Total Energy =                       -381.4675266787091346
  Basis Set: 6-31G*
    Blend: 6-31G*
  Basis Set: (6-31G* AUX)
    Blend: CC-PVDZ-JKFIT
   => B3LYP Composite Functional <=
  Charge       = 1
  Multiplicity = 1
  Basis Set: 6-31G*
    Blend: 6-31G*
   => B3LYP Composite Functional <=
  Basis Set: (6-31G* AUX)
    Blend: CC-PVDZ-JKFIT

    Orbital Energies (a.u.)
    -----------------------

    Doubly Occupied:

       1A    -14.565697     2A    -14.565363     3A    -10.497766
       4A    -10.376788     5A    -10.360041     6A    -10.359953
       7A    -10.346228     8A    -10.342682     9A    -10.342528
      10A     -1.183034    11A     -1.089410    12A     -1.016664
      13A     -0.928536    14A     -0.905247    15A     -0.847501
      16A     -0.786150    17A     -0.776127    18A     -0.737594
      19A     -0.736336    20A     -0.688109    21A     -0.669375
      22A     -0.630698    23A     -0.611334    24A     -0.597584
      25A     -0.581751    26A     -0.576302    27A     -0.518394
      28A     -0.509147    29A     -0.500636    30A     -0.471445
      31A     -0.413452    32A     -0.407821

  @DF-RKS Final Energy:  -381.46752677396836

   => Energetics <=

    Nuclear Repulsion Energy =            416.7439477363181481
    One-Electron Energy =               -1328.5953614597876822
    Two-Electron Energy =                 574.8026999990147488
    DFT Exchange-Correlation Energy =     -44.4072267095135871
    Empirical Dispersion Energy =          -0.0115863400000000
    PCM Polarization Energy =               0.0000000000000000
    EFP Energy =                            0.0000000000000000
    Total Energy =                       -381.4675267739683022
    Molecular point group: c1
  Basis Set: 6-31G*
    Blend: 6-31G*
  Basis Set: (6-31G* AUX)
    Blend: CC-PVDZ-JKFIT
   => B3LYP Composite Functional <=

  -Total Gradient:
     Atom            X                  Y                   Z
    ------   -----------------  -----------------  -----------------
       1       -0.004873250487    -0.000225134994    -0.000145686086
       2        0.004865990103    -0.000197006291     0.000156291001
       3        0.000004396885     0.000001353083    -0.000011953454
       4        0.000002586358    -0.000008970318    -0.000004247346
       5        0.000016774289     0.000008400578     0.000005730880
       6       -0.000028762292     0.000002313030     0.000006421083
       7       -0.005053326594     0.001555223761    -0.000122702367
       8       -0.000006065997    -0.000000774029    -0.000005274043
       9       -0.000001255125     0.000001602577    -0.000003414542
      10       -0.000001130803     0.000001160093    -0.000000997482
      11       -0.000002226834    -0.000002076071    -0.000004275792
      12       -0.000001932164    -0.000001599440     0.000002786676
      13        0.005063228807    -0.001122527895     0.000121673337
      14        0.000031028152    -0.000014780945    -0.000010247011
      15       -0.000004441735     0.000002518401     0.000000572403
      16       -0.000009615296     0.000005333446     0.000010358388
      17       -0.000000001221     0.000000852412    -0.000001035249
      18       -0.000004743094    -0.000002719139    -0.000000236688

  **** Optimization is complete! (in 7 steps) ****
    Final optimized geometry and variables:
    Molecular point group: c1

    Geometry (in Angstrom), charge = 1, multiplicity = 1:

    C           -0.071033831074     0.003897411374    -0.176303904418
    C           -0.037760687973     1.218295025525     0.538567655100
    C            0.003199250923     1.214188834862     1.927727745041
    C            0.022217763282     0.002370094818     2.624262976999
    C            0.006418985656    -1.208263940034     1.926311929233
    C           -0.028767885846    -1.211338337426     0.536594335945
    C           -0.033939568030     0.001994628311    -1.644185152967
    H           -0.109371810304     2.173894140537     0.027353802349
    H            0.012105665776     2.155470332226     2.467335379149
    H            0.054386615476     0.001796981642     3.709384099457
    H            0.039556169307    -2.150037301753     2.464149505604
    H            0.024768037196    -2.165527115403     0.021666959350
    N           -0.263169075227    -1.117954386391    -2.330270199461
    N            0.298563097350     1.102267832657    -2.317547239524
    H            0.286493578283     1.141770103505    -3.329292949058
    H            0.670666294242     1.910511145194    -1.839580148378
    H           -0.700816022858    -1.913537321087    -1.887070410513
    H           -0.173516576177    -1.159799128558    -3.338103383908

  Mulliken Charges: (a.u.)
   Center  Symbol    Alpha    Beta     Spin     Total
       1     C     2.93437  2.93437  0.00000  0.13126
       2     C     3.08874  3.08874  0.00000 -0.17748
       3     C     3.06166  3.06166  0.00000 -0.12332
       4     C     3.05128  3.05128  0.00000 -0.10256
       5     C     3.06108  3.06108  0.00000 -0.12215
       6     C     3.08494  3.08494  0.00000 -0.16988
       7     C     2.70845  2.70845  0.00000  0.58310
       8     H     0.41810  0.41810  0.00000  0.16380
       9     H     0.40500  0.40500  0.00000  0.19000
      10     H     0.40281  0.40281  0.00000  0.19437
      11     H     0.40497  0.40497  0.00000  0.19006
      12     H     0.41898  0.41898  0.00000  0.16204
      13     N     3.87293  3.87293  0.00000 -0.74587
      14     N     3.87288  3.87288  0.00000 -0.74576
      15     H     0.30595  0.30595  0.00000  0.38809
      16     H     0.30069  0.30069  0.00000  0.39861
      17     H     0.30110  0.30110  0.00000  0.39781
      18     H     0.30607  0.30607  0.00000  0.38786

   Total alpha = 32.00000, Total beta = 32.00000, Total charge =  1.00000

*** Psi4 exiting successfully. Buy a developer a beer!
