                               Psi4 1.1 release

  ==> Input File <==

--------------------------------------------------------------------------
set_num_threads(1)
set_memory(3145728000)

set { reference rks }
set { basis 6-31G* }

molecule MOL {
    1 1
    noreorient
    nocom
    symmetry c1
    C    0.000000   0.000000  -0.177864
    C    0.036678   1.219374   0.524165
    C    0.031764   1.213119   1.915444
    C   -0.000000  -0.000000   2.610107
    C   -0.031764  -1.213119   1.915444
    C   -0.036677  -1.219374   0.524165
    C    0.000000  -0.000000  -1.644734
    H    0.018170   2.164705  -0.010853
    H    0.042402   2.152895   2.457886
    H   -0.000000  -0.000000   3.695756
    H   -0.042402  -2.152895   2.457886
    H   -0.018170  -2.164705  -0.010853
    N   -0.714008   0.904833  -2.308461
    N    0.714008  -0.904833  -2.308460
    H    0.820900  -0.890289  -3.315997
    H    1.122370  -1.686726  -1.813316
    H   -1.122369   1.686726  -1.813317
    H   -0.820900   0.890289  -3.315997
}

set optking { frozen_dihedral = (" 2 1 7 13 ") }

set optking { dynamic_level = 1
 geom_maxiter = 250
 print_trajectory_xyz_file = True }

energy, wfn = optimize('B3LYP-D3', return_wfn=True)

import os
os.chdir(os.environ['HTMD_PSI4_WORKDIR'])

oeprop(wfn, 'DIPOLE', 'QUADRUPOLE', 'MULLIKEN_CHARGES')

with open('psi4out.xyz', 'w') as f:
    f.write('18 ' )
    f.write('%.12f\n' % energy)
    f.write(MOL.save_string_xyz())
--------------------------------------------------------------------------

    Molecular point group: c1
  Charge       = 1
  Multiplicity = 1
  Basis Set: 6-31G*
    Blend: 6-31G*
   => B3LYP Composite Functional <=
  Basis Set: (6-31G* AUX)
    Blend: CC-PVDZ-JKFIT
  @DF-RKS Final Energy:  -381.46525560538873
    Total Energy =                       -381.4652556053887906
    Molecular point group: c1
  Basis Set: 6-31G*
    Blend: 6-31G*
  Basis Set: (6-31G* AUX)
    Blend: CC-PVDZ-JKFIT
   => B3LYP Composite Functional <=
  Basis Set: 6-31G*
    Blend: 6-31G*
   => B3LYP Composite Functional <=
  Basis Set: (6-31G* AUX)
    Blend: CC-PVDZ-JKFIT
  @DF-RKS Final Energy:  -381.46875961645748
    Total Energy =                       -381.4687596164574188
  Basis Set: 6-31G*
    Blend: 6-31G*
  Basis Set: (6-31G* AUX)
  @DF-RKS Final Energy:  -381.47014805281611
    Total Energy =                       -381.4701480528161142
  @DF-RKS Final Energy:  -381.47042601083945
    Total Energy =                       -381.4704260108394465
  @DF-RKS Final Energy:  -381.47043966976383
    Total Energy =                       -381.4704396697638344
   => B3LYP Composite Functional <=
  Basis Set: (6-31G* AUX)
    Blend: CC-PVDZ-JKFIT
  @DF-RKS Final Energy:  -381.47044799445297
    Total Energy =                       -381.4704479944529112
  Basis Set: 6-31G*
    Blend: 6-31G*
  Basis Set: (6-31G* AUX)
    Blend: CC-PVDZ-JKFIT
   => B3LYP Composite Functional <=
  Charge       = 1
  Multiplicity = 1
  Basis Set: 6-31G*
    Blend: 6-31G*
   => B3LYP Composite Functional <=
  Basis Set: (6-31G* AUX)
    Blend: CC-PVDZ-JKFIT

    Orbital Energies (a.u.)
    -----------------------

    Doubly Occupied:

       1A    -14.568515     2A    -14.568504     3A    -10.497344
       4A    -10.372753     5A    -10.355667     6A    -10.355559
       7A    -10.342367     8A    -10.340005     9A    -10.339942
      10A     -1.184149    11A     -1.092447    12A     -1.013905
      13A     -0.926291    14A     -0.901726    15A     -0.845263
      16A     -0.785810    17A     -0.772918    18A     -0.742625
      19A     -0.732397    20A     -0.688910    21A     -0.668985
      22A     -0.624766    23A     -0.617932    24A     -0.585886
      25A     -0.578604    26A     -0.572437    27A     -0.518266
      28A     -0.504874    29A     -0.497661    30A     -0.473215
      31A     -0.411290    32A     -0.405264

  @DF-RKS Final Energy:  -381.47044849556806

   => Energetics <=

    Nuclear Repulsion Energy =            416.9194446970541890
    One-Electron Energy =               -1329.0593089258084092
    Two-Electron Energy =                 575.0872853390076216
    DFT Exchange-Correlation Energy =     -44.4059094158214123
    Empirical Dispersion Energy =          -0.0119601900000000
    PCM Polarization Energy =               0.0000000000000000
    EFP Energy =                            0.0000000000000000
    Total Energy =                       -381.4704484955680641
    Molecular point group: c1
  Basis Set: 6-31G*
    Blend: 6-31G*
  Basis Set: (6-31G* AUX)
    Blend: CC-PVDZ-JKFIT
   => B3LYP Composite Functional <=

  -Total Gradient:
     Atom            X                  Y                   Z
    ------   -----------------  -----------------  -----------------
       1       -0.001508396685    -0.000198065225    -0.000036448317
       2        0.000812670830    -0.000018256242     0.000007440766
       3        0.000014347971    -0.000003820742    -0.000002161410
       4        0.000005412918    -0.000003421417    -0.000009138696
       5       -0.000008876074     0.000003698731     0.000002580863
       6       -0.000021069103    -0.000007080351     0.000001738676
       7        0.001417694066     0.000758640475     0.000045814345
       8       -0.000007626201    -0.000005698139    -0.000006727768
       9        0.000000401449    -0.000000444202     0.000000014510
      10       -0.000003532396     0.000000161061     0.000000027459
      11        0.000002661866     0.000000110602     0.000000002989
      12        0.000002406384     0.000003744473    -0.000003697465
      13       -0.000719736720    -0.000545107267    -0.000001003204
      14        0.000047815543     0.000018157043     0.000025176784
      15       -0.000021676256    -0.000015673628    -0.000008057411
      16       -0.000037085101     0.000010594271    -0.000025382297
      17        0.000013031295    -0.000004478765    -0.000015057364
      18        0.000012433424     0.000005874725     0.000004536211

  **** Optimization is complete! (in 7 steps) ****
    Final optimized geometry and variables:
    Molecular point group: c1

    Geometry (in Angstrom), charge = 1, multiplicity = 1:

    C           -0.008252396471     0.000553625061    -0.177932770013
    C            0.035229273455     1.219878139631     0.523026536660
    C            0.044067421650     1.212524185690     1.914517722005
    C            0.001733798037    -0.000652448037     2.608408543891
    C           -0.043164662163    -1.213309924715     1.913548465655
    C           -0.040747037419    -1.219641142099     0.522103445236
    C            0.000655091200     0.002130550534    -1.645286458922
    H            0.107184379516     2.161604654326    -0.013893366911
    H            0.094011610109     2.150739079564     2.457502839704
    H            0.004565241704    -0.001193260308     3.694061974813
    H           -0.088298749543    -2.152083214196     2.455994800789
    H           -0.112926356328    -2.161120790599    -0.015196856443
    N           -0.701722384076     0.914853964193    -2.309634774971
    N            0.701268403325    -0.915974322457    -2.304030799811
    H            0.665447012801    -1.018886227894    -3.311596157206
    H            1.348913842877    -1.509540243760    -1.802357744213
    H           -1.350145297700     1.510644768534    -1.811552246769
    H           -0.657817190973     1.019472606532    -3.316682153494

  Mulliken Charges: (a.u.)
   Center  Symbol    Alpha    Beta     Spin     Total
       1     C     2.96008  2.96008  0.00000  0.07984
       2     C     3.08110  3.08110  0.00000 -0.16219
       3     C     3.06242  3.06242  0.00000 -0.12485
       4     C     3.05159  3.05159  0.00000 -0.10317
       5     C     3.06265  3.06265  0.00000 -0.12531
       6     C     3.08137  3.08137  0.00000 -0.16275
       7     C     2.72412  2.72412  0.00000  0.55177
       8     H     0.41402  0.41402  0.00000  0.17196
       9     H     0.40554  0.40554  0.00000  0.18892
      10     H     0.40406  0.40406  0.00000  0.19187
      11     H     0.40554  0.40554  0.00000  0.18892
      12     H     0.41394  0.41394  0.00000  0.17212
      13     N     3.86156  3.86156  0.00000 -0.72313
      14     N     3.86199  3.86199  0.00000 -0.72399
      15     H     0.30565  0.30565  0.00000  0.38871
      16     H     0.29941  0.29941  0.00000  0.40118
      17     H     0.29928  0.29928  0.00000  0.40143
      18     H     0.30567  0.30567  0.00000  0.38865

   Total alpha = 32.00000, Total beta = 32.00000, Total charge =  1.00000

*** Psi4 exiting successfully. Buy a developer a beer!
