                              Psi4 1.0.54 Driver

  ==> Input File <==

--------------------------------------------------------------------------
set_num_threads(1)
set_memory(3145728000)

set { reference rks }
set { basis 6-31G* }

molecule MOL {
    1 1
    noreorient
    nocom
    symmetry c1
    C    0.000000   0.000000  -0.177864
    C    0.036678   1.219374   0.524165
    C    0.031764   1.213119   1.915444
    C   -0.000000  -0.000000   2.610107
    C   -0.031764  -1.213119   1.915444
    C   -0.036677  -1.219374   0.524165
    C    0.000000  -0.000000  -1.644734
    H    0.018170   2.164705  -0.010853
    H    0.042402   2.152895   2.457886
    H   -0.000000  -0.000000   3.695756
    H   -0.042402  -2.152895   2.457886
    H   -0.018170  -2.164705  -0.010853
    N   -1.070765   0.426604  -2.308461
    N    1.070765  -0.426604  -2.308461
    H    1.156065  -0.360563  -3.315997
    H    1.815364  -0.899563  -1.813316
    H   -1.815363   0.899563  -1.813317
    H   -1.156065   0.360563  -3.315997
}

set optking { frozen_dihedral = (" 2 1 7 13 ") }

set optking { dynamic_level = 1
 geom_maxiter = 250
 print_trajectory_xyz_file = True }

energy, wfn = optimize('B3LYP-D3', return_wfn=True)

import os
os.chdir(os.environ['HTMD_PSI4_WORKDIR'])

oeprop(wfn, 'DIPOLE', 'QUADRUPOLE', 'MULLIKEN_CHARGES')

with open('psi4out.xyz', 'w') as f:
    f.write('18 ' )
    f.write('%.12f\n' % energy)
    f.write(MOL.save_string_xyz())
--------------------------------------------------------------------------

    Molecular point group: c1
  Charge       = 1
  Multiplicity = 1
  Basis Set: 6-31G*
   => B3LYP-D3 Composite Functional <=
  Basis Set:
  @DF-RKS Final Energy:  -381.46261573630721
    Total Energy =                       -381.4626157363071570
    Molecular point group: c1
  Basis Set: 6-31G*
  Basis Set:
   => B3LYP-D3 Composite Functional <=
  Basis Set: 6-31G*
   => B3LYP-D3 Composite Functional <=
  Basis Set:
  @DF-RKS Final Energy:  -381.46544479835637
    Total Energy =                       -381.4654447983564296
  Basis Set: 6-31G*
  Basis Set:
   => B3LYP-D3 Composite Functional <=
  Basis Set: 6-31G*
   => B3LYP-D3 Composite Functional <=
  Basis Set:
  @DF-RKS Final Energy:  -381.46618171428912
    Total Energy =                       -381.4661817142891778
  Basis Set: 6-31G*
  Basis Set:
   => B3LYP-D3 Composite Functional <=
  Basis Set:
  @DF-RKS Final Energy:  -381.46625904463758
    Total Energy =                       -381.4662590446376385
  Basis Set: 6-31G*
  Basis Set:
   => B3LYP-D3 Composite Functional <=
  Basis Set: 6-31G*
   => B3LYP-D3 Composite Functional <=
  Basis Set:
  @DF-RKS Final Energy:  -381.46626471733276
    Total Energy =                       -381.4662647173328764
  Basis Set: 6-31G*
  Basis Set:
   => B3LYP-D3 Composite Functional <=
  Charge       = 1
  Multiplicity = 1
  Basis Set: 6-31G*
   => B3LYP-D3 Composite Functional <=
  Basis Set:

    Orbital Energies (a.u.)
    -----------------------

    Doubly Occupied:

       1A    -14.574148     2A    -14.574024     3A    -10.501162
       4A    -10.369165     5A    -10.350789     6A    -10.350401
       7A    -10.335818     8A    -10.335293     9A    -10.334998
      10A     -1.188674    11A     -1.097742    12A     -1.010155
      13A     -0.923113    14A     -0.896791    15A     -0.845176
      16A     -0.787403    17A     -0.767563    18A     -0.751823
      19A     -0.728924    20A     -0.690633    21A     -0.667557
      22A     -0.622556    23A     -0.617902    24A     -0.579030
      25A     -0.574485    26A     -0.568574    27A     -0.516480
      28A     -0.498683    29A     -0.493132    30A     -0.478030
      31A     -0.406480    32A     -0.400133

  @DF-RKS Final Energy:  -381.46626614938697

   => Energetics <=

    Nuclear Repulsion Energy =            416.4957536950634562
    One-Electron Energy =               -1328.3037645691192665
    Two-Electron Energy =                 574.7579831120433482
    DFT Exchange-Correlation Energy =     -44.4044419673744812
    Empirical Dispersion Energy =          -0.0117964200000000
    PCM Polarization Energy =               0.0000000000000000
    EFP Energy =                            0.0000000000000000
    Total Energy =                       -381.4662661493869109
    Molecular point group: c1
  Basis Set: 6-31G*
  Basis Set:
   => B3LYP-D3 Composite Functional <=

  -Total Gradient:
     Atom            X                  Y                   Z
    ------   -----------------  -----------------  -----------------
       1       -0.007561949477    -0.001617077556    -0.000205851759
       2        0.004642629862    -0.000235851905     0.000120612808
       3       -0.000028123256     0.000006423398    -0.000010788368
       4        0.000003759913    -0.000007800972    -0.000007476766
       5        0.000036329882    -0.000009053039     0.000010464756
       6       -0.000076408732     0.000012084101    -0.000037351144
       7        0.004899032394     0.006328380245     0.000160443351
       8       -0.000017220582    -0.000000781491     0.000002138603
       9        0.000002880621    -0.000001170873    -0.000000081022
      10       -0.000001254739     0.000001499275     0.000002446924
      11        0.000000329774     0.000001551146    -0.000000617388
      12        0.000018424195    -0.000005968198     0.000004611925
      13       -0.001892817067    -0.004466047948    -0.000057758046
      14       -0.000012330911     0.000040862772     0.000051906727
      15       -0.000009637977    -0.000022183169    -0.000003866466
      16        0.000005030144    -0.000017846085    -0.000019400463
      17       -0.000012346401    -0.000001379815    -0.000014472687
      18       -0.000007516365     0.000001425871     0.000008114687

  **** Optimization is complete! (in 6 steps) ****
    Final optimized geometry and variables:
    Molecular point group: c1

    Geometry (in Angstrom), charge = 1, multiplicity = 1:

    C           -0.054479295599     0.011304004900    -0.175744066273
    C           -0.013200145144     1.228278796892     0.522033739408
    C            0.021890644514     1.211978174423     1.915166995527
    C            0.019646054425    -0.005401953187     2.601336335980
    C           -0.004690645681    -1.214790999749     1.900436767818
    C           -0.022332522152    -1.214796250736     0.507334912831
    C           -0.010224806059     0.019235569423    -1.653316156946
    H           -0.000519424724     2.171444535563    -0.017037051395
    H            0.057978458183     2.148213121952     2.462834544554
    H            0.042361450715    -0.012275627036     3.686709998130
    H           -0.005996142354    -2.157755498860     2.437702486775
    H           -0.039509364962    -2.151302661734    -0.042977934555
    N           -1.054822129294     0.472661116905    -2.331301089525
    N            1.047472652081    -0.488658639142    -2.269295730766
    H            1.113905312253    -0.587656289044    -3.276812166455
    H            1.846253939474    -0.779598894104    -1.719486680572
    H           -1.872271175783     0.789145313024    -1.824629251095
    H           -1.071460859894     0.559976180510    -3.341955653442

  Mulliken Charges: (a.u.)
   Center  Symbol    Alpha    Beta     Spin     Total
       1     C     2.98575  2.98575  0.00000  0.02851
       2     C     3.07270  3.07270  0.00000 -0.14540
       3     C     3.06194  3.06194  0.00000 -0.12388
       4     C     3.05310  3.05310  0.00000 -0.10620
       5     C     3.06321  3.06321  0.00000 -0.12641
       6     C     3.07427  3.07427  0.00000 -0.14855
       7     C     2.74219  2.74219  0.00000  0.51562
       8     H     0.41336  0.41336  0.00000  0.17328
       9     H     0.40683  0.40683  0.00000  0.18634
      10     H     0.40598  0.40598  0.00000  0.18803
      11     H     0.40680  0.40680  0.00000  0.18639
      12     H     0.41345  0.41345  0.00000  0.17311
      13     N     3.84807  3.84807  0.00000 -0.69615
      14     N     3.84900  3.84900  0.00000 -0.69800
      15     H     0.30518  0.30518  0.00000  0.38964
      16     H     0.29659  0.29659  0.00000  0.40682
      17     H     0.29621  0.29621  0.00000  0.40758
      18     H     0.30537  0.30537  0.00000  0.38927

   Total alpha = 32.00000, Total beta = 32.00000, Total charge =  1.00000

*** Psi4 exiting successfully. Buy a developer a beer!
