                               Psi4 1.1 release

  ==> Input File <==

--------------------------------------------------------------------------
set_num_threads(1)
set_memory(3145728000)

set { reference rks }
set { basis 6-31G* }

molecule MOL {
    1 1
    noreorient
    nocom
    symmetry c1
    C    0.000000   0.000000  -0.177864
    C    0.036678   1.219374   0.524165
    C    0.031764   1.213119   1.915444
    C   -0.000000  -0.000000   2.610107
    C   -0.031764  -1.213119   1.915444
    C   -0.036677  -1.219374   0.524165
    C    0.000000  -0.000000  -1.644734
    H    0.018170   2.164705  -0.010853
    H    0.042402   2.152895   2.457886
    H   -0.000000  -0.000000   3.695756
    H   -0.042402  -2.152895   2.457886
    H   -0.018170  -2.164705  -0.010853
    N   -0.712590  -0.905950  -2.308460
    N    0.712590   0.905950  -2.308461
    H    0.673432   1.006469  -3.315997
    H    1.377190   1.485970  -1.813317
    H   -1.001126  -1.757983  -1.845783
    H   -1.045781  -0.758973  -3.254054
}

set optking { frozen_dihedral = (" 1 7 13 17 ") }

set optking { dynamic_level = 1
 geom_maxiter = 250
 print_trajectory_xyz_file = True }

energy, wfn = optimize('B3LYP-D3', return_wfn=True)

import os
os.chdir(os.environ['HTMD_PSI4_WORKDIR'])

oeprop(wfn, 'DIPOLE', 'QUADRUPOLE', 'MULLIKEN_CHARGES')

with open('psi4out.xyz', 'w') as f:
    f.write('18 ' )
    f.write('%.12f\n' % energy)
    f.write(MOL.save_string_xyz())
--------------------------------------------------------------------------

    Molecular point group: c1
  Charge       = 1
  Multiplicity = 1
  Basis Set: 6-31G*
    Blend: 6-31G*
   => B3LYP Composite Functional <=
  Basis Set: (6-31G* AUX)
    Blend: CC-PVDZ-JKFIT
  @DF-RKS Final Energy:  -381.46127256384068
    Total Energy =                       -381.4612725638406800
    Molecular point group: c1
  Basis Set: 6-31G*
    Blend: 6-31G*
  Basis Set: (6-31G* AUX)
    Blend: CC-PVDZ-JKFIT
   => B3LYP Composite Functional <=
  Basis Set: 6-31G*
    Blend: 6-31G*
   => B3LYP Composite Functional <=
  Basis Set: (6-31G* AUX)
    Blend: CC-PVDZ-JKFIT
  @DF-RKS Final Energy:  -381.46506801422123
    Total Energy =                       -381.4650680142212877
  Basis Set: 6-31G*
    Blend: 6-31G*
  Basis Set: (6-31G* AUX)
  @DF-RKS Final Energy:  -381.46627793767084
    Total Energy =                       -381.4662779376708386
  @DF-RKS Final Energy:  -381.46729726380238
    Total Energy =                       -381.4672972638023793
  @DF-RKS Final Energy:  -381.46736578769543
    Total Energy =                       -381.4673657876954280
   => B3LYP Composite Functional <=
  Basis Set: (6-31G* AUX)
    Blend: CC-PVDZ-JKFIT
  @DF-RKS Final Energy:  -381.46737203364302
    Total Energy =                       -381.4673720336430165
  Basis Set: 6-31G*
    Blend: 6-31G*
  Basis Set: (6-31G* AUX)
    Blend: CC-PVDZ-JKFIT
   => B3LYP Composite Functional <=
  Charge       = 1
  Multiplicity = 1
  Basis Set: 6-31G*
    Blend: 6-31G*
   => B3LYP Composite Functional <=
  Basis Set: (6-31G* AUX)
    Blend: CC-PVDZ-JKFIT

    Orbital Energies (a.u.)
    -----------------------

    Doubly Occupied:

       1A    -14.570588     2A    -14.567845     3A    -10.499125
       4A    -10.374796     5A    -10.357734     6A    -10.356887
       7A    -10.342930     8A    -10.341167     9A    -10.340852
      10A     -1.185529    11A     -1.093579    12A     -1.015159
      13A     -0.927308    14A     -0.903085    15A     -0.846247
      16A     -0.786396    17A     -0.773354    18A     -0.742815
      19A     -0.733479    20A     -0.685690    21A     -0.669256
      22A     -0.626422    23A     -0.620577    24A     -0.588389
      25A     -0.579453    26A     -0.574931    27A     -0.518782
      28A     -0.506388    29A     -0.499066    30A     -0.474173
      31A     -0.411577    32A     -0.406256

  @DF-RKS Final Energy:  -381.46737269425222

   => Energetics <=

    Nuclear Repulsion Energy =            416.7984712823200084
    One-Electron Energy =               -1328.7455105998251383
    Two-Electron Energy =                 574.8955166057570523
    DFT Exchange-Correlation Energy =     -44.4039794425040739
    Empirical Dispersion Energy =          -0.0118705400000000
    PCM Polarization Energy =               0.0000000000000000
    EFP Energy =                            0.0000000000000000
    Total Energy =                       -381.4673726942522194
    Molecular point group: c1
  Basis Set: 6-31G*
    Blend: 6-31G*
  Basis Set: (6-31G* AUX)
    Blend: CC-PVDZ-JKFIT
   => B3LYP Composite Functional <=

  -Total Gradient:
     Atom            X                  Y                   Z
    ------   -----------------  -----------------  -----------------
       1       -0.003562889862     0.003481962102     0.000045781371
       2        0.000017031214    -0.000029385173    -0.000015351270
       3       -0.000001259088    -0.000002208830     0.000000065785
       4       -0.000002884692    -0.000005365380     0.000001588619
       5        0.000000136336     0.000000702900     0.000008547600
       6        0.000000489077    -0.000005782031    -0.000004694460
       7        0.007531708909    -0.006661832182    -0.000862488747
       8       -0.000001175211     0.000002281273    -0.000000116575
       9       -0.000003398565     0.000002194337    -0.000007742425
      10        0.000001997232    -0.000001699203    -0.000002782936
      11        0.000001042808    -0.000002127800    -0.000003569273
      12        0.000006437050    -0.000004110889     0.000011189321
      13       -0.009684758367     0.007090177220     0.002993516903
      14        0.000002945578    -0.000020895401     0.000014006356
      15        0.000013660336    -0.000010449931     0.000004514050
      16        0.000006751216    -0.000023810945    -0.000011508802
      17        0.005677008140    -0.003809760076    -0.002180798774
      18       -0.000004775500    -0.000013372021    -0.000012881899

  **** Optimization is complete! (in 7 steps) ****
    Final optimized geometry and variables:
    Molecular point group: c1

    Geometry (in Angstrom), charge = 1, multiplicity = 1:

    C            0.006107045389    -0.007071880605    -0.175687363842
    C            0.045489482679     1.212280165902     0.524995837602
    C            0.039832785365     1.206830108935     1.916740150443
    C            0.011143511388    -0.004602921877     2.613467323951
    C           -0.018990564210    -1.218214893307     1.919921550841
    C           -0.026595549275    -1.224312329142     0.528755896443
    C           -0.006959779166    -0.004649891771    -1.645095563348
    H            0.023857242155     2.158232438964    -0.008600685833
    H            0.048274818544     2.147779809853     2.457211120140
    H            0.011413316849    -0.003265006126     3.699057688179
    H           -0.027914475806    -2.157836062835     2.462592938823
    H           -0.007971235558    -2.173997626905    -0.000073545168
    N           -0.816771346909    -0.833491541835    -2.306279053766
    N            0.693000471377     0.909484020534    -2.307947019716
    H            0.637846739037     1.025612514961    -3.313283262577
    H            1.333328035462     1.513767142368    -1.809920729866
    H           -1.180619462738    -1.649516830807    -1.829560376381
    H           -0.760755034583    -0.921544216306    -3.315817905925

  Mulliken Charges: (a.u.)
   Center  Symbol    Alpha    Beta     Spin     Total
       1     C     2.94756  2.94756  0.00000  0.10487
       2     C     3.08178  3.08178  0.00000 -0.16356
       3     C     3.06225  3.06225  0.00000 -0.12451
       4     C     3.05165  3.05165  0.00000 -0.10330
       5     C     3.06232  3.06232  0.00000 -0.12464
       6     C     3.08496  3.08496  0.00000 -0.16991
       7     C     2.73463  2.73463  0.00000  0.53073
       8     H     0.41446  0.41446  0.00000  0.17108
       9     H     0.40526  0.40526  0.00000  0.18948
      10     H     0.40383  0.40383  0.00000  0.19234
      11     H     0.40538  0.40538  0.00000  0.18924
      12     H     0.41731  0.41731  0.00000  0.16538
      13     N     3.85329  3.85329  0.00000 -0.70657
      14     N     3.86196  3.86196  0.00000 -0.72391
      15     H     0.30495  0.30495  0.00000  0.39011
      16     H     0.29902  0.29902  0.00000  0.40195
      17     H     0.30096  0.30096  0.00000  0.39808
      18     H     0.30843  0.30843  0.00000  0.38314

   Total alpha = 32.00000, Total beta = 32.00000, Total charge =  1.00000

*** Psi4 exiting successfully. Buy a developer a beer!
