                               Psi4 1.1 release

  ==> Input File <==

--------------------------------------------------------------------------
set {
	reference rks
	basis 6-31G*
}

set_num_threads( 8 )
memory 2 gb

molecule MOL {
1 1

C	 -0.455860	 0.472122	 -0.346641
C	 -0.267187	 1.817998	 0.019537
C	 -0.705894	 2.261010	 1.263320
C	 -1.322280	 1.369451	 2.146732
C	 -1.506904	 0.030727	 1.787625
C	 -1.080874	 -0.421846	 0.542877
C	 -0.000000	 -0.000000	 -1.658508
H	 0.172257	 2.523600	 -0.679929
H	 -0.576774	 3.302321	 1.539969
H	 -1.659667	 1.718875	 3.117662
H	 -1.973172	 -0.661406	 2.481223
H	 -1.187782	 -1.471847	 0.285376
N	 -0.712589	 -0.905950	 -2.322235
N	 1.125124	 0.478699	 -2.181965
H	 1.433825	 0.255339	 -3.120890
H	 1.747002	 1.038828	 -1.613805
H	 -1.377189	 -1.485970	 -1.827091
H	 -0.673431	 -1.006470	 -3.329771

	symmetry c1
}
set optking { dynamic_level = 1 }
set optking {
	frozen_dihedral = ("
		1 7 13 17
	")
}

ee,wfn = optimize('b3lyp-d3', return_wfn=True)
oeprop( wfn, 'DIPOLE', 'QUADRUPOLE', 'MULLIKEN_CHARGES')
f=open( 'psi4out.xyz', 'w' )
f.write( "18  " )
f.write( str(ee) + "\n" )
f.write( MOL.save_string_xyz() )
f.close()
--------------------------------------------------------------------------

    Molecular point group: c1
  Charge       = 1
  Multiplicity = 1
  Basis Set: 6-31G*
    Blend: 6-31G*
   => B3LYP Composite Functional <=
  Basis Set: (6-31G* AUX)
    Blend: CC-PVDZ-JKFIT
  @DF-RKS Final Energy:  -381.46127254253560
    Total Energy =                       -381.4612725425355961
    Molecular point group: c1
  Basis Set: 6-31G*
    Blend: 6-31G*
  Basis Set: (6-31G* AUX)
    Blend: CC-PVDZ-JKFIT
   => B3LYP Composite Functional <=
  Basis Set: 6-31G*
    Blend: 6-31G*
   => B3LYP Composite Functional <=
  Basis Set: (6-31G* AUX)
    Blend: CC-PVDZ-JKFIT
  @DF-RKS Final Energy:  -381.46506801592705
    Total Energy =                       -381.4650680159271019
  Basis Set: 6-31G*
    Blend: 6-31G*
  Basis Set: (6-31G* AUX)
  @DF-RKS Final Energy:  -381.46627795201971
    Total Energy =                       -381.4662779520196523
  @DF-RKS Final Energy:  -381.46729727555470
    Total Energy =                       -381.4672972755547562
  @DF-RKS Final Energy:  -381.46736579978301
    Total Energy =                       -381.4673657997830674
   => B3LYP Composite Functional <=
  Basis Set: (6-31G* AUX)
    Blend: CC-PVDZ-JKFIT
  @DF-RKS Final Energy:  -381.46737205525642
    Total Energy =                       -381.4673720552564191
  Basis Set: 6-31G*
    Blend: 6-31G*
  Basis Set: (6-31G* AUX)
    Blend: CC-PVDZ-JKFIT
   => B3LYP Composite Functional <=
  Charge       = 1
  Multiplicity = 1
  Basis Set: 6-31G*
    Blend: 6-31G*
   => B3LYP Composite Functional <=
  Basis Set: (6-31G* AUX)
    Blend: CC-PVDZ-JKFIT

    Orbital Energies (a.u.)
    -----------------------

    Doubly Occupied:

       1A    -14.570587     2A    -14.567845     3A    -10.499125
       4A    -10.374796     5A    -10.357734     6A    -10.356887
       7A    -10.342930     8A    -10.341167     9A    -10.340852
      10A     -1.185529    11A     -1.093579    12A     -1.015159
      13A     -0.927308    14A     -0.903085    15A     -0.846247
      16A     -0.786396    17A     -0.773354    18A     -0.742815
      19A     -0.733479    20A     -0.685690    21A     -0.669256
      22A     -0.626422    23A     -0.620577    24A     -0.588389
      25A     -0.579453    26A     -0.574931    27A     -0.518782
      28A     -0.506388    29A     -0.499066    30A     -0.474173
      31A     -0.411577    32A     -0.406256

  @DF-RKS Final Energy:  -381.46737270684883

   => Energetics <=

    Nuclear Repulsion Energy =            416.7984745234680304
    One-Electron Energy =               -1328.7455194212193419
    Two-Electron Energy =                 574.8955225627535128
    DFT Exchange-Correlation Energy =     -44.4039798318510819
    Empirical Dispersion Energy =          -0.0118705400000000
    PCM Polarization Energy =               0.0000000000000000
    EFP Energy =                            0.0000000000000000
    Total Energy =                       -381.4673727068488915
    Molecular point group: c1
  Basis Set: 6-31G*
    Blend: 6-31G*
  Basis Set: (6-31G* AUX)
    Blend: CC-PVDZ-JKFIT
   => B3LYP Composite Functional <=

  -Total Gradient:
     Atom            X                  Y                   Z
    ------   -----------------  -----------------  -----------------
       1       -0.002152140560     0.003960107661    -0.002122153039
       2        0.000011126216    -0.000035559466    -0.000000556595
       3       -0.000001886214    -0.000001718974     0.000000209658
       4       -0.000004768901    -0.000003905270     0.000001581052
       5       -0.000002346854     0.000003380152     0.000007590213
       6        0.000000131816    -0.000006902647    -0.000002700340
       7        0.005001615930    -0.007972438645     0.003643027223
       8       -0.000000271445     0.000002390139    -0.000001151936
       9        0.000000033576     0.000000301402    -0.000008721982
      10        0.000002152827    -0.000002878433    -0.000001363064
      11        0.000001409279    -0.000003306789    -0.000002333660
      12        0.000001043271    -0.000001533929     0.000013425000
      13       -0.007469699344     0.009493526581    -0.002665035734
      14       -0.000008063340    -0.000015401486     0.000018353829
      15        0.000007697696    -0.000011007379     0.000011630751
      16        0.000002378982    -0.000027063675    -0.000002271295
      17        0.004617156349    -0.005381820733     0.001102819647
      18       -0.000004379890    -0.000015553753    -0.000010370191

  **** Optimization is complete! (in 7 steps) ****
    Final optimized geometry and variables:
    Molecular point group: c1

    Geometry (in Angstrom), charge = 1, multiplicity = 1:

    C            0.069339626827    -0.075207093815    -0.162946278758
    C            0.260857616062     1.269663322129     0.203075631411
    C           -0.178416186656     1.713720801962     1.446806053225
    C           -0.792160273902     0.823758678646     2.332868788456
    C           -0.975815935588    -0.515392831706     1.975501612638
    C           -0.552193652476    -0.967236753465     0.729781752389
    C            0.514975005851    -0.543242368928    -1.482677027373
    H            0.697238963777     1.976934109362    -0.496465982800
    H           -0.050300221201     2.755930877085     1.720577762275
    H           -1.128877299296     1.174345865186     3.303548128803
    H           -1.440567396915    -1.207658882012     2.669931910875
    H           -0.662254907892    -2.019295221364     0.478845207742
    N           -0.262233212436    -1.357258450075    -2.199100225060
    N            1.630972705519    -0.054119247047    -2.012077641421
    H            1.929384258582    -0.259078810818    -2.958740652473
    H            2.237557150495     0.534319081626    -1.456196940899
    H           -0.987914161016    -1.884111613804    -1.728614930410
    H            0.074902528914    -1.775018172673    -3.060422541206

  Mulliken Charges: (a.u.)
   Center  Symbol    Alpha    Beta     Spin     Total
       1     C     2.94756  2.94756  0.00000  0.10487
       2     C     3.08178  3.08178  0.00000 -0.16356
       3     C     3.06225  3.06225  0.00000 -0.12451
       4     C     3.05165  3.05165  0.00000 -0.10330
       5     C     3.06232  3.06232  0.00000 -0.12464
       6     C     3.08496  3.08496  0.00000 -0.16991
       7     C     2.73463  2.73463  0.00000  0.53073
       8     H     0.41446  0.41446  0.00000  0.17108
       9     H     0.40526  0.40526  0.00000  0.18948
      10     H     0.40383  0.40383  0.00000  0.19234
      11     H     0.40538  0.40538  0.00000  0.18924
      12     H     0.41731  0.41731  0.00000  0.16538
      13     N     3.85329  3.85329  0.00000 -0.70657
      14     N     3.86196  3.86196  0.00000 -0.72391
      15     H     0.30495  0.30495  0.00000  0.39011
      16     H     0.29902  0.29902  0.00000  0.40195
      17     H     0.30096  0.30096  0.00000  0.39808
      18     H     0.30843  0.30843  0.00000  0.38314

   Total alpha = 32.00000, Total beta = 32.00000, Total charge =  1.00000

*** Psi4 exiting successfully. Buy a developer a beer!
