                               Psi4 1.1 release

  ==> Input File <==

--------------------------------------------------------------------------
set_num_threads( 8 )
memory 2.000000 gb

set { reference rks }
set { basis cc-pVDZ }

molecule MOL {
    0 1
    noreorient
    nocom
    symmetry c1
    O    1.141000   0.017000   0.083000
    C    2.558000   0.086000  -0.005000
    C    3.192000  -0.789000   1.067000
    O    3.608201   0.010829   2.167191
    H    0.789000   0.590000  -0.620000
    H    2.874000   1.128000   0.115000
    H    2.871000  -0.243000  -1.001000
    H    4.058385  -1.321706   0.662602
    H    2.475688  -1.538960   1.421029
    H    4.003579  -0.595177   2.817821
}

set optking { frozen_dihedral = (" 1 2 3 4, 2 3 4 10 ") }

energy, wfn = energy('B3LYP-D3', return_wfn=True)

import os
os.chdir(os.environ['HTMD_PSI4_WORKDIR'])

oeprop(wfn, 'DIPOLE', 'QUADRUPOLE', 'MULLIKEN_CHARGES')

with open('psi4out.xyz', 'w') as f:
    f.write('10 ' )
    f.write('%.12f\n' % energy)
    f.write(MOL.save_string_xyz())
--------------------------------------------------------------------------

    Molecular point group: c1

    Geometry (in Angstrom), charge = 0, multiplicity = 1:

       Center              X                  Y                   Z               Mass
    ------------   -----------------  -----------------  -----------------  -----------------
           O          1.141000000000     0.017000000000     0.083000000000    15.994914619560
           C          2.558000000000     0.086000000000    -0.005000000000    12.000000000000
           C          3.192000000000    -0.789000000000     1.067000000000    12.000000000000
           O          3.608201000000     0.010829000000     2.167191000000    15.994914619560
           H          0.789000000000     0.590000000000    -0.620000000000     1.007825032070
           H          2.874000000000     1.128000000000     0.115000000000     1.007825032070
           H          2.871000000000    -0.243000000000    -1.001000000000     1.007825032070
           H          4.058385000000    -1.321706000000     0.662602000000     1.007825032070
           H          2.475688000000    -1.538960000000     1.421029000000     1.007825032070
           H          4.003579000000    -0.595177000000     2.817821000000     1.007825032070

  Charge       = 0
  Multiplicity = 1
  Basis Set: CC-PVDZ
    Blend: CC-PVDZ
   => B3LYP Composite Functional <=
  Basis Set: (CC-PVDZ AUX)
    Blend: CC-PVDZ-JKFIT

    Orbital Energies (a.u.)
    -----------------------

    Doubly Occupied:

       1A    -19.126934     2A    -19.126897     3A    -10.225936
       4A    -10.225747     5A     -1.016762     6A     -1.003116
       7A     -0.733104     8A     -0.603106     9A     -0.515969
      10A     -0.510739    11A     -0.428075    12A     -0.417210
      13A     -0.409536    14A     -0.344926    15A     -0.319167
      16A     -0.267116    17A     -0.254357

  @DF-RKS Final Energy:  -230.25450625468952

   => Energetics <=

    Nuclear Repulsion Energy =            130.5702102499748207
    One-Electron Energy =                -572.9586741122391231
    Two-Electron Energy =                 236.6784572742221542
    DFT Exchange-Correlation Energy =     -24.5402170466473599
    Empirical Dispersion Energy =          -0.0042826200000000
    PCM Polarization Energy =               0.0000000000000000
    EFP Energy =                            0.0000000000000000
    Total Energy =                       -230.2545062546895167

  Mulliken Charges: (a.u.)
   Center  Symbol    Alpha    Beta     Spin     Total
       1     O     4.13885  4.13885  0.00000 -0.27770
       2     C     2.93166  2.93166  0.00000  0.13667
       3     C     2.93185  2.93185  0.00000  0.13629
       4     O     4.13909  4.13909  0.00000 -0.27818
       5     H     0.43098  0.43098  0.00000  0.13804
       6     H     0.49448  0.49448  0.00000  0.01104
       7     H     0.50396  0.50396  0.00000 -0.00792
       8     H     0.50382  0.50382  0.00000 -0.00764
       9     H     0.49438  0.49438  0.00000  0.01124
      10     H     0.43093  0.43093  0.00000  0.13815

   Total alpha = 17.00000, Total beta = 17.00000, Total charge = -0.00000

*** Psi4 exiting successfully. Buy a developer a beer!
