                               Psi4 1.1 release

  ==> Input File <==

--------------------------------------------------------------------------
set_num_threads(1)
set_memory(3145728000)

set { reference rks }
set { basis 6-31G* }

molecule MOL {
    1 1
    noreorient
    nocom
    symmetry c1
    C    0.000000   0.000000  -0.177864
    C    0.036678   1.219374   0.524165
    C    0.031764   1.213119   1.915444
    C   -0.000000  -0.000000   2.610107
    C   -0.031764  -1.213119   1.915444
    C   -0.036677  -1.219374   0.524165
    C    0.000000  -0.000000  -1.644734
    H    0.018170   2.164705  -0.010853
    H    0.042402   2.152895   2.457886
    H   -0.000000  -0.000000   3.695756
    H   -0.042402  -2.152895   2.457886
    H   -0.018170  -2.164705  -0.010853
    N   -0.904833  -0.714008  -2.308460
    N    0.904833   0.714008  -2.308461
    H    0.890289   0.820900  -3.315997
    H    1.686726   1.122370  -1.813317
    H   -1.686726  -1.122369  -1.813316
    H   -0.890289  -0.820900  -3.315997
}

set optking { frozen_dihedral = (" 2 1 7 13 ") }

set optking { dynamic_level = 1
 geom_maxiter = 250
 print_trajectory_xyz_file = True }

energy, wfn = optimize('B3LYP-D3', return_wfn=True)

import os
os.chdir(os.environ['HTMD_PSI4_WORKDIR'])

oeprop(wfn, 'DIPOLE', 'QUADRUPOLE', 'MULLIKEN_CHARGES')

with open('psi4out.xyz', 'w') as f:
    f.write('18 ' )
    f.write('%.12f\n' % energy)
    f.write(MOL.save_string_xyz())
--------------------------------------------------------------------------

    Molecular point group: c1
  Charge       = 1
  Multiplicity = 1
  Basis Set: 6-31G*
    Blend: 6-31G*
   => B3LYP Composite Functional <=
  Basis Set: (6-31G* AUX)
    Blend: CC-PVDZ-JKFIT
  @DF-RKS Final Energy:  -381.46921516934464
    Total Energy =                       -381.4692151693445794
    Molecular point group: c1
  Basis Set: 6-31G*
    Blend: 6-31G*
  Basis Set: (6-31G* AUX)
    Blend: CC-PVDZ-JKFIT
   => B3LYP Composite Functional <=
  Basis Set: 6-31G*
    Blend: 6-31G*
   => B3LYP Composite Functional <=
  Basis Set: (6-31G* AUX)
    Blend: CC-PVDZ-JKFIT
  @DF-RKS Final Energy:  -381.46955499726266
    Total Energy =                       -381.4695549972626623
  Basis Set: 6-31G*
    Blend: 6-31G*
  Basis Set: (6-31G* AUX)
  @DF-RKS Final Energy:  -381.46966560692567
    Total Energy =                       -381.4696656069256164
  @DF-RKS Final Energy:  -381.46967410153701
    Total Energy =                       -381.4696741015370094
   => B3LYP Composite Functional <=
  Basis Set: (6-31G* AUX)
    Blend: CC-PVDZ-JKFIT
  @DF-RKS Final Energy:  -381.46967577948789
    Total Energy =                       -381.4696757794878863
  Basis Set: 6-31G*
    Blend: 6-31G*
  Basis Set: (6-31G* AUX)
    Blend: CC-PVDZ-JKFIT
   => B3LYP Composite Functional <=
  Charge       = 1
  Multiplicity = 1
  Basis Set: 6-31G*
    Blend: 6-31G*
   => B3LYP Composite Functional <=
  Basis Set: (6-31G* AUX)
    Blend: CC-PVDZ-JKFIT

    Orbital Energies (a.u.)
    -----------------------

    Doubly Occupied:

       1A    -14.570121     2A    -14.569981     3A    -10.498163
       4A    -10.371625     5A    -10.354344     6A    -10.353911
       7A    -10.340497     8A    -10.338736     9A    -10.338642
      10A     -1.185298    11A     -1.093999    12A     -1.012859
      13A     -0.925384    14A     -0.900334    15A     -0.845005
      16A     -0.786179    17A     -0.771479    18A     -0.745438
      19A     -0.731144    20A     -0.689134    21A     -0.668678
      22A     -0.622651    23A     -0.619695    24A     -0.583327
      25A     -0.577386    26A     -0.571313    27A     -0.517963
      28A     -0.503091    29A     -0.496399    30A     -0.474429
      31A     -0.410022    32A     -0.403887

  @DF-RKS Final Energy:  -381.46967591750717

   => Energetics <=

    Nuclear Repulsion Energy =            416.8776326943372510
    One-Electron Energy =               -1329.0047018156692502
    Two-Electron Energy =                 575.0749101606584190
    DFT Exchange-Correlation Energy =     -44.4055320768337012
    Empirical Dispersion Energy =          -0.0119848800000000
    PCM Polarization Energy =               0.0000000000000000
    EFP Energy =                            0.0000000000000000
    Total Energy =                       -381.4696759175072316
    Molecular point group: c1
  Basis Set: 6-31G*
    Blend: 6-31G*
  Basis Set: (6-31G* AUX)
    Blend: CC-PVDZ-JKFIT
   => B3LYP Composite Functional <=

  -Total Gradient:
     Atom            X                  Y                   Z
    ------   -----------------  -----------------  -----------------
       1        0.003431405198     0.000955024274    -0.000039306402
       2       -0.002916221520     0.000071590829     0.000031679429
       3       -0.000013748623    -0.000002867014     0.000009386617
       4       -0.000005927572     0.000011154430    -0.000005311661
       5       -0.000001257241    -0.000008182005    -0.000011362110
       6        0.000014326908     0.000005265941     0.000016179227
       7        0.001445604028    -0.003446105533    -0.000067741014
       8       -0.000004234774     0.000000402945    -0.000000505152
       9        0.000004460399    -0.000000982412     0.000000107798
      10        0.000004975766    -0.000000093973     0.000000970442
      11       -0.000000901431     0.000001502803     0.000001770965
      12        0.000001003544    -0.000000579250    -0.000005439788
      13       -0.001945511409     0.002409698031     0.000044696014
      14       -0.000011425815     0.000011248528     0.000006213368
      15        0.000002248304    -0.000008386454     0.000000366320
      16       -0.000000348414    -0.000005976742    -0.000001275609
      17       -0.000007536390     0.000000540304     0.000000396785
      18       -0.000004476790     0.000003642595    -0.000001176149

  **** Optimization is complete! (in 6 steps) ****
    Final optimized geometry and variables:
    Molecular point group: c1

    Geometry (in Angstrom), charge = 1, multiplicity = 1:

    C            0.045380946390    -0.010188852742    -0.177943289533
    C            0.082629283782     1.212246111077     0.515679855196
    C            0.048840811108     1.209610908981     1.907544227938
    C           -0.016981833302    -0.000675840891     2.604228187357
    C           -0.060562528507    -1.215725423539     1.913312834075
    C           -0.043691934016    -1.226672212938     0.521543966886
    C            0.020646942327    -0.008451167409    -1.647540754142
    H            0.104756946841     2.152318706634    -0.028328951307
    H            0.064260939374     2.150630715702     2.447829332940
    H           -0.037983313857     0.002890207006     3.689674300242
    H           -0.104466097393    -2.152824889568     2.458804690820
    H           -0.056349697262    -2.170074106576    -0.017388802693
    N           -0.890456293782    -0.731510109272    -2.288539223963
    N            0.880220091717     0.751482679880    -2.316840694052
    H            0.846702133910     0.873649353239    -3.322626604502
    H            1.637819821694     1.202850466085    -1.820367893995
    H           -1.613503186544    -1.203958863333    -1.761208756318
    H           -0.907262032479    -0.835596682337    -3.296831424947

  Mulliken Charges: (a.u.)
   Center  Symbol    Alpha    Beta     Spin     Total
       1     C     2.96839  2.96839  0.00000  0.06323
       2     C     3.07728  3.07728  0.00000 -0.15455
       3     C     3.06224  3.06224  0.00000 -0.12448
       4     C     3.05197  3.05197  0.00000 -0.10395
       5     C     3.06297  3.06297  0.00000 -0.12595
       6     C     3.08030  3.08030  0.00000 -0.16059
       7     C     2.73023  2.73023  0.00000  0.53954
       8     H     0.41358  0.41358  0.00000  0.17285
       9     H     0.40586  0.40586  0.00000  0.18828
      10     H     0.40461  0.40461  0.00000  0.19078
      11     H     0.40588  0.40588  0.00000  0.18825
      12     H     0.41358  0.41358  0.00000  0.17285
      13     N     3.85687  3.85687  0.00000 -0.71374
      14     N     3.85822  3.85822  0.00000 -0.71644
      15     H     0.30557  0.30557  0.00000  0.38887
      16     H     0.29848  0.29848  0.00000  0.40305
      17     H     0.29844  0.29844  0.00000  0.40313
      18     H     0.30556  0.30556  0.00000  0.38887

   Total alpha = 32.00000, Total beta = 32.00000, Total charge =  1.00000

*** Psi4 exiting successfully. Buy a developer a beer!
