                               Psi4 1.1 release

  ==> Input File <==

--------------------------------------------------------------------------
set {
	reference rks
	basis 6-31G*
}

set_num_threads( 8 )
memory 2 gb

molecule MOL {
1 1

C	 -0.000000	 -0.000000	 -0.191639
C	 -1.075252	 0.576240	 0.510391
C	 -1.071842	 0.569054	 1.901670
C	 -0.000000	 0.000000	 2.596333
C	 1.071842	 -0.569054	 1.901670
C	 1.075251	 -0.576241	 0.510391
C	 -0.000000	 -0.000000	 -1.658508
H	 -1.929769	 0.980953	 -0.024627
H	 -1.908398	 0.997382	 2.444112
H	 -0.000000	 0.000000	 3.681982
H	 1.908399	 -0.997381	 2.444112
H	 1.929769	 -0.980953	 -0.024627
N	 -0.712589	 -0.905950	 -2.322235
N	 0.712590	 0.905950	 -2.322235
H	 0.673432	 1.006470	 -3.329771
H	 1.377190	 1.485970	 -1.827091
H	 -1.377189	 -1.485970	 -1.827091
H	 -0.673431	 -1.006470	 -3.329771

	symmetry c1
}
set optking { dynamic_level = 1 }
set optking {
	frozen_dihedral = ("
		2 1 7 13
	")
}

ee,wfn = optimize('b3lyp-d3', return_wfn=True)
oeprop( wfn, 'DIPOLE', 'QUADRUPOLE', 'MULLIKEN_CHARGES')
f=open( 'psi4out.xyz', 'w' )
f.write( "18  " )
f.write( str(ee) + "\n" )
f.write( MOL.save_string_xyz() )
f.close()
--------------------------------------------------------------------------

    Molecular point group: c1
  Charge       = 1
  Multiplicity = 1
  Basis Set: 6-31G*
    Blend: 6-31G*
   => B3LYP Composite Functional <=
  Basis Set: (6-31G* AUX)
    Blend: CC-PVDZ-JKFIT
  @DF-RKS Final Energy:  -381.46184120449760
    Total Energy =                       -381.4618412044976594
    Molecular point group: c1
  Basis Set: 6-31G*
    Blend: 6-31G*
  Basis Set: (6-31G* AUX)
    Blend: CC-PVDZ-JKFIT
   => B3LYP Composite Functional <=
  Basis Set: 6-31G*
    Blend: 6-31G*
   => B3LYP Composite Functional <=
  Basis Set: (6-31G* AUX)
    Blend: CC-PVDZ-JKFIT
  @DF-RKS Final Energy:  -381.46407504480305
    Total Energy =                       -381.4640750448029962
  Basis Set: 6-31G*
    Blend: 6-31G*
  Basis Set: (6-31G* AUX)
  @DF-RKS Final Energy:  -381.46460579312884
    Total Energy =                       -381.4646057931288397
  @DF-RKS Final Energy:  -381.46465130172322
    Total Energy =                       -381.4646513017232792
   => B3LYP Composite Functional <=
  Basis Set: (6-31G* AUX)
    Blend: CC-PVDZ-JKFIT
  @DF-RKS Final Energy:  -381.46465536292112
    Total Energy =                       -381.4646553629211212
  Basis Set: 6-31G*
    Blend: 6-31G*
  Basis Set: (6-31G* AUX)
    Blend: CC-PVDZ-JKFIT
   => B3LYP Composite Functional <=
  Charge       = 1
  Multiplicity = 1
  Basis Set: 6-31G*
    Blend: 6-31G*
   => B3LYP Composite Functional <=
  Basis Set: (6-31G* AUX)
    Blend: CC-PVDZ-JKFIT

    Orbital Energies (a.u.)
    -----------------------

    Doubly Occupied:

       1A    -14.576165     2A    -14.576045     3A    -10.502885
       4A    -10.368075     5A    -10.348969     6A    -10.348862
       7A    -10.333790     8A    -10.333559     9A    -10.332880
      10A     -1.190470    11A     -1.099587    12A     -1.008811
      13A     -0.921993    14A     -0.895081    15A     -0.845544
      16A     -0.788093    17A     -0.765744    18A     -0.754644
      19A     -0.728111    20A     -0.691750    21A     -0.666886
      22A     -0.623534    23A     -0.615887    24A     -0.577721
      25A     -0.573089    26A     -0.567283    27A     -0.515481
      28A     -0.496614    29A     -0.491588    30A     -0.479912
      31A     -0.404620    32A     -0.398287

  @DF-RKS Final Energy:  -381.46465575347554

   => Energetics <=

    Nuclear Repulsion Energy =            416.2506743577829411
    One-Electron Energy =               -1327.8406174322594779
    Two-Electron Energy =                 574.5410255647396980
    DFT Exchange-Correlation Energy =     -44.4040566137387103
    Empirical Dispersion Energy =          -0.0116816300000000
    PCM Polarization Energy =               0.0000000000000000
    EFP Energy =                            0.0000000000000000
    Total Energy =                       -381.4646557534755402
    Molecular point group: c1
  Basis Set: 6-31G*
    Blend: 6-31G*
  Basis Set: (6-31G* AUX)
    Blend: CC-PVDZ-JKFIT
   => B3LYP Composite Functional <=

  -Total Gradient:
     Atom            X                  Y                   Z
    ------   -----------------  -----------------  -----------------
       1       -0.001132028604    -0.004950981377    -0.000075422635
       2        0.001528689936     0.002758268609     0.000061178899
       3       -0.000001873490     0.000019599713    -0.000009640262
       4        0.000006831576    -0.000004517972    -0.000006377863
       5       -0.000009781316    -0.000016793918     0.000009017798
       6       -0.000006887134     0.000015741376    -0.000034188875
       7       -0.002905714947     0.004245614416     0.000049131803
       8       -0.000001079652    -0.000007238195     0.000001593001
       9       -0.000000265878    -0.000006190405     0.000002744451
      10        0.000000740368     0.000002030348    -0.000000217066
      11        0.000003431196     0.000005224888    -0.000000949372
      12        0.000006212398     0.000005779637     0.000002829579
      13        0.002553406972    -0.002066697235    -0.000010454620
      14       -0.000045017559     0.000004704665     0.000026497082
      15        0.000008279032    -0.000001716539    -0.000010410746
      16        0.000006118654     0.000016151139    -0.000006713070
      17       -0.000009573729    -0.000005925365    -0.000005150174
      18       -0.000000977534    -0.000004865711    -0.000005653661

  **** Optimization is complete! (in 6 steps) ****
    Final optimized geometry and variables:
    Molecular point group: c1

    Geometry (in Angstrom), charge = 1, multiplicity = 1:

    C           -0.023785926325    -0.027773460239    -0.184743693490
    C           -1.095298939230     0.552316559619     0.509322327821
    C           -1.069877701334     0.569170586959     1.903192753991
    C            0.013462364999     0.016364853066     2.591029688787
    C            1.083180693253    -0.549087299716     1.891634746326
    C            1.078512746174    -0.562979447525     0.497762150083
    C           -0.013763655864     0.000158387194    -1.667546114034
    H           -1.932713315599     0.985102962623    -0.030709854021
    H           -1.893711363088     1.016982431845     2.449649069268
    H            0.026214072255     0.029603608221     3.676485435523
    H            1.923568736920    -0.975999009218     2.429589175758
    H            1.909275667407    -0.997215718128    -0.051248593687
    N           -0.737517774042    -0.884379817906    -2.335697459931
    N            0.755896501377     0.880745435021    -2.287855117384
    H            0.851885561324     0.929509902774    -3.297019174349
    H            1.274430291128     1.554907430137    -1.738329029448
    H           -1.283205216594    -1.564233289450    -1.820502858428
    H           -0.802828661093    -0.906373569080    -3.348247664195

  Mulliken Charges: (a.u.)
   Center  Symbol    Alpha    Beta     Spin     Total
       1     C     2.99250  2.99250  0.00000  0.01499
       2     C     3.07105  3.07105  0.00000 -0.14209
       3     C     3.06248  3.06248  0.00000 -0.12495
       4     C     3.05360  3.05360  0.00000 -0.10721
       5     C     3.06304  3.06304  0.00000 -0.12609
       6     C     3.07129  3.07129  0.00000 -0.14257
       7     C     2.74676  2.74676  0.00000  0.50648
       8     H     0.41356  0.41356  0.00000  0.17289
       9     H     0.40732  0.40732  0.00000  0.18537
      10     H     0.40668  0.40668  0.00000  0.18663
      11     H     0.40730  0.40730  0.00000  0.18541
      12     H     0.41363  0.41363  0.00000  0.17273
      13     N     3.84482  3.84482  0.00000 -0.68964
      14     N     3.84497  3.84497  0.00000 -0.68995
      15     H     0.30500  0.30500  0.00000  0.39000
      16     H     0.29556  0.29556  0.00000  0.40889
      17     H     0.29536  0.29536  0.00000  0.40928
      18     H     0.30508  0.30508  0.00000  0.38984

   Total alpha = 32.00000, Total beta = 32.00000, Total charge =  1.00000

*** Psi4 exiting successfully. Buy a developer a beer!
