                               Psi4 1.1 release

  ==> Input File <==

--------------------------------------------------------------------------
set_num_threads(1)
set_memory(4203741184)

set { reference rks }
set { basis cc-pVDZ }

molecule MOL {
    0 1
    noreorient
    nocom
    symmetry c1
    O    1.050400   0.042900  -0.048100
    C    2.474100   0.047400  -0.029000
    C    3.002600  -1.068900  -0.932000
    N    4.462700  -1.072400  -1.006800
    H    0.760846   0.764531   0.536211
    H    2.809900  -0.097900   1.003200
    H    2.817400   1.026800  -0.378600
    H    2.581000  -0.963300  -1.938400
    H    2.653800  -2.036400  -0.553400
    H    4.779000  -0.221000  -1.470000
    H    4.758600  -1.842500  -1.606500
}

set optking { frozen_dihedral = (" 3 2 1 5 ") }

energy, wfn = energy('B3LYP-D3', return_wfn=True)

import os
os.chdir(os.environ['HTMD_PSI4_WORKDIR'])

oeprop(wfn, 'DIPOLE', 'QUADRUPOLE', 'MULLIKEN_CHARGES')

with open('psi4out.xyz', 'w') as f:
    f.write('11 ' )
    f.write('%.12f\n' % energy)
    f.write(MOL.save_string_xyz())
--------------------------------------------------------------------------

    Molecular point group: c1

    Geometry (in Angstrom), charge = 0, multiplicity = 1:

       Center              X                  Y                   Z               Mass
    ------------   -----------------  -----------------  -----------------  -----------------
           O          1.050400000000     0.042900000000    -0.048100000000    15.994914619560
           C          2.474100000000     0.047400000000    -0.029000000000    12.000000000000
           C          3.002600000000    -1.068900000000    -0.932000000000    12.000000000000
           N          4.462700000000    -1.072400000000    -1.006800000000    14.003074004780
           H          0.760846000000     0.764531000000     0.536211000000     1.007825032070
           H          2.809900000000    -0.097900000000     1.003200000000     1.007825032070
           H          2.817400000000     1.026800000000    -0.378600000000     1.007825032070
           H          2.581000000000    -0.963300000000    -1.938400000000     1.007825032070
           H          2.653800000000    -2.036400000000    -0.553400000000     1.007825032070
           H          4.779000000000    -0.221000000000    -1.470000000000     1.007825032070
           H          4.758600000000    -1.842500000000    -1.606500000000     1.007825032070

  Charge       = 0
  Multiplicity = 1
  Basis Set: CC-PVDZ
    Blend: CC-PVDZ
   => B3LYP Composite Functional <=
  Basis Set: (CC-PVDZ AUX)
    Blend: CC-PVDZ-JKFIT

    Orbital Energies (a.u.)
    -----------------------

    Doubly Occupied:

       1A    -19.126997     2A    -14.304867     3A    -10.223817
       4A    -10.201780     5A     -1.009383     6A     -0.876731
       7A     -0.712125     8A     -0.597011     9A     -0.505958
      10A     -0.485638    11A     -0.454885    12A     -0.415340
      13A     -0.388521    14A     -0.363774    15A     -0.323127
      16A     -0.260614    17A     -0.231032

  @DF-RKS Final Energy:  -210.39130484166293

   => Energetics <=

    Nuclear Repulsion Energy =            130.4115683435978212
    One-Electron Energy =                -543.7605173983999975
    Two-Electron Energy =                 226.4489808911349087
    DFT Exchange-Correlation Energy =     -23.4864209179956589
    Empirical Dispersion Energy =          -0.0049157600000000
    PCM Polarization Energy =               0.0000000000000000
    EFP Energy =                            0.0000000000000000
    Total Energy =                       -210.3913048416629010

  Mulliken Charges: (a.u.)
   Center  Symbol    Alpha    Beta     Spin     Total
       1     O     4.13942  4.13942  0.00000 -0.27884
       2     C     2.92952  2.92952  0.00000  0.14097
       3     C     2.98471  2.98471  0.00000  0.03058
       4     N     3.59348  3.59348  0.00000 -0.18695
       5     H     0.42981  0.42981  0.00000  0.14039
       6     H     0.49801  0.49801  0.00000  0.00398
       7     H     0.50485  0.50485  0.00000 -0.00970
       8     H     0.50105  0.50105  0.00000 -0.00211
       9     H     0.48985  0.48985  0.00000  0.02029
      10     H     0.46595  0.46595  0.00000  0.06811
      11     H     0.46335  0.46335  0.00000  0.07329

   Total alpha = 17.00000, Total beta = 17.00000, Total charge =  0.00000

*** Psi4 exiting successfully. Buy a developer a beer!
