                               Psi4 1.1 release

  ==> Input File <==

--------------------------------------------------------------------------
set_num_threads(1)
set_memory(4203741184)

set { reference rks }
set { basis cc-pVDZ }

molecule MOL {
    0 1
    noreorient
    nocom
    symmetry c1
    O    1.050400   0.042900  -0.048100
    C    2.474100   0.047400  -0.029000
    C    3.002600  -1.068900  -0.932000
    N    3.402409  -2.251045  -0.170302
    H    0.760400   0.728400   0.578000
    H    2.809900  -0.097900   1.003200
    H    2.817400   1.026800  -0.378600
    H    3.853188  -0.701277  -1.517741
    H    2.228192  -1.345661  -1.656397
    H    4.203393  -2.019526   0.416474
    H    3.730324  -2.964944  -0.820741
}

set optking { frozen_dihedral = (" 1 2 3 4 ") }

energy, wfn = energy('B3LYP-D3', return_wfn=True)

import os
os.chdir(os.environ['HTMD_PSI4_WORKDIR'])

oeprop(wfn, 'DIPOLE', 'QUADRUPOLE', 'MULLIKEN_CHARGES')

with open('psi4out.xyz', 'w') as f:
    f.write('11 ' )
    f.write('%.12f\n' % energy)
    f.write(MOL.save_string_xyz())
--------------------------------------------------------------------------

    Molecular point group: c1

    Geometry (in Angstrom), charge = 0, multiplicity = 1:

       Center              X                  Y                   Z               Mass
    ------------   -----------------  -----------------  -----------------  -----------------
           O          1.050400000000     0.042900000000    -0.048100000000    15.994914619560
           C          2.474100000000     0.047400000000    -0.029000000000    12.000000000000
           C          3.002600000000    -1.068900000000    -0.932000000000    12.000000000000
           N          3.402409000000    -2.251045000000    -0.170302000000    14.003074004780
           H          0.760400000000     0.728400000000     0.578000000000     1.007825032070
           H          2.809900000000    -0.097900000000     1.003200000000     1.007825032070
           H          2.817400000000     1.026800000000    -0.378600000000     1.007825032070
           H          3.853188000000    -0.701277000000    -1.517741000000     1.007825032070
           H          2.228192000000    -1.345661000000    -1.656397000000     1.007825032070
           H          4.203393000000    -2.019526000000     0.416474000000     1.007825032070
           H          3.730324000000    -2.964944000000    -0.820741000000     1.007825032070

  Charge       = 0
  Multiplicity = 1
  Basis Set: CC-PVDZ
    Blend: CC-PVDZ
   => B3LYP Composite Functional <=
  Basis Set: (CC-PVDZ AUX)
    Blend: CC-PVDZ-JKFIT

    Orbital Energies (a.u.)
    -----------------------

    Doubly Occupied:

       1A    -19.123043     2A    -14.301101     3A    -10.223509
       4A    -10.201637     5A     -1.006250     6A     -0.874163
       7A     -0.713061     8A     -0.596799     9A     -0.507549
      10A     -0.480999    11A     -0.459292    12A     -0.397810
      13A     -0.389161    14A     -0.372812    15A     -0.321608
      16A     -0.257456    17A     -0.227412

  @DF-RKS Final Energy:  -210.38673705838357

   => Energetics <=

    Nuclear Repulsion Energy =            131.4176428226519988
    One-Electron Energy =                -545.8183447751623589
    Two-Electron Energy =                 227.5070655834667548
    DFT Exchange-Correlation Energy =     -23.4883386693399920
    Empirical Dispersion Energy =          -0.0047620200000000
    PCM Polarization Energy =               0.0000000000000000
    EFP Energy =                            0.0000000000000000
    Total Energy =                       -210.3867370583835736

  Mulliken Charges: (a.u.)
   Center  Symbol    Alpha    Beta     Spin     Total
       1     O     4.13852  4.13852  0.00000 -0.27704
       2     C     2.92256  2.92256  0.00000  0.15489
       3     C     2.97969  2.97969  0.00000  0.04062
       4     N     3.59099  3.59099  0.00000 -0.18198
       5     H     0.43256  0.43256  0.00000  0.13489
       6     H     0.50347  0.50347  0.00000 -0.00693
       7     H     0.50530  0.50530  0.00000 -0.01061
       8     H     0.50759  0.50759  0.00000 -0.01519
       9     H     0.48611  0.48611  0.00000  0.02779
      10     H     0.46700  0.46700  0.00000  0.06599
      11     H     0.46622  0.46622  0.00000  0.06757

   Total alpha = 17.00000, Total beta = 17.00000, Total charge =  0.00000

*** Psi4 exiting successfully. Buy a developer a beer!
