                               Psi4 1.1 release

  ==> Input File <==

--------------------------------------------------------------------------
set_num_threads(1)
set_memory(4203741184)

set { reference rks }
set { basis cc-pVDZ }

molecule MOL {
    0 1
    noreorient
    nocom
    symmetry c1
    O    1.050400   0.042900  -0.048100
    C    2.474100   0.047400  -0.029000
    C    3.002600  -1.068900  -0.932000
    N    4.462700  -1.072400  -1.006800
    H    0.760400   0.728400   0.578000
    H    2.809900  -0.097900   1.003200
    H    2.817400   1.026800  -0.378600
    H    2.581000  -0.963300  -1.938400
    H    2.653800  -2.036400  -0.553400
    H    4.837106  -1.667066  -0.268102
    H    4.803636  -0.132042  -0.807447
}

set optking { frozen_dihedral = (" 2 3 4 10 ") }

energy, wfn = energy('B3LYP-D3', return_wfn=True)

import os
os.chdir(os.environ['HTMD_PSI4_WORKDIR'])

oeprop(wfn, 'DIPOLE', 'QUADRUPOLE', 'MULLIKEN_CHARGES')

with open('psi4out.xyz', 'w') as f:
    f.write('11 ' )
    f.write('%.12f\n' % energy)
    f.write(MOL.save_string_xyz())
--------------------------------------------------------------------------

    Molecular point group: c1

    Geometry (in Angstrom), charge = 0, multiplicity = 1:

       Center              X                  Y                   Z               Mass
    ------------   -----------------  -----------------  -----------------  -----------------
           O          1.050400000000     0.042900000000    -0.048100000000    15.994914619560
           C          2.474100000000     0.047400000000    -0.029000000000    12.000000000000
           C          3.002600000000    -1.068900000000    -0.932000000000    12.000000000000
           N          4.462700000000    -1.072400000000    -1.006800000000    14.003074004780
           H          0.760400000000     0.728400000000     0.578000000000     1.007825032070
           H          2.809900000000    -0.097900000000     1.003200000000     1.007825032070
           H          2.817400000000     1.026800000000    -0.378600000000     1.007825032070
           H          2.581000000000    -0.963300000000    -1.938400000000     1.007825032070
           H          2.653800000000    -2.036400000000    -0.553400000000     1.007825032070
           H          4.837106000000    -1.667066000000    -0.268102000000     1.007825032070
           H          4.803636000000    -0.132042000000    -0.807447000000     1.007825032070

  Charge       = 0
  Multiplicity = 1
  Basis Set: CC-PVDZ
    Blend: CC-PVDZ
   => B3LYP Composite Functional <=
  Basis Set: (CC-PVDZ AUX)
    Blend: CC-PVDZ-JKFIT

    Orbital Energies (a.u.)
    -----------------------

    Doubly Occupied:

       1A    -19.129275     2A    -14.306833     3A    -10.226626
       4A    -10.202192     5A     -1.011934     6A     -0.879508
       7A     -0.711249     8A     -0.605463     9A     -0.506671
      10A     -0.495643    11A     -0.446897    12A     -0.415857
      13A     -0.398807    14A     -0.355326    15A     -0.330395
      16A     -0.264204    17A     -0.234629

  @DF-RKS Final Energy:  -210.39075510406082

   => Energetics <=

    Nuclear Repulsion Energy =            130.8610619785707456
    One-Electron Energy =                -544.5782640253962654
    Two-Electron Energy =                 226.8181903130786736
    DFT Exchange-Correlation Energy =     -23.4867102903140008
    Empirical Dispersion Energy =          -0.0050330800000000
    PCM Polarization Energy =               0.0000000000000000
    EFP Energy =                            0.0000000000000000
    Total Energy =                       -210.3907551040608155

  Mulliken Charges: (a.u.)
   Center  Symbol    Alpha    Beta     Spin     Total
       1     O     4.13807  4.13807  0.00000 -0.27613
       2     C     2.94353  2.94353  0.00000  0.11294
       3     C     2.97839  2.97839  0.00000  0.04322
       4     N     3.59020  3.59020  0.00000 -0.18041
       5     H     0.43078  0.43078  0.00000  0.13845
       6     H     0.50600  0.50600  0.00000 -0.01200
       7     H     0.50119  0.50119  0.00000 -0.00239
       8     H     0.48924  0.48924  0.00000  0.02152
       9     H     0.49143  0.49143  0.00000  0.01713
      10     H     0.46364  0.46364  0.00000  0.07272
      11     H     0.46753  0.46753  0.00000  0.06495

   Total alpha = 17.00000, Total beta = 17.00000, Total charge = -0.00000

*** Psi4 exiting successfully. Buy a developer a beer!
