                               Psi4 1.1 release

  ==> Input File <==

--------------------------------------------------------------------------
set_num_threads(1)
set_memory(3145728000)

set { reference rks }
set { basis 6-31G* }

molecule MOL {
    1 1
    noreorient
    nocom
    symmetry c1
    C    0.000000   0.000000  -0.177864
    C    0.036678   1.219374   0.524165
    C    0.031764   1.213119   1.915444
    C   -0.000000  -0.000000   2.610107
    C   -0.031764  -1.213119   1.915444
    C   -0.036677  -1.219374   0.524165
    C    0.000000  -0.000000  -1.644734
    H    0.018170   2.164705  -0.010853
    H    0.042402   2.152895   2.457886
    H   -0.000000  -0.000000   3.695756
    H   -0.042402  -2.152895   2.457886
    H   -0.018170  -2.164705  -0.010853
    N    0.606060   0.980419  -2.308461
    N   -0.606060  -0.980419  -2.308460
    H   -0.555833  -1.075891  -3.315997
    H   -1.201131  -1.631577  -1.813316
    H    1.201131   1.631576  -1.813317
    H    0.555834   1.075890  -3.315997
}

set optking { frozen_dihedral = (" 2 1 7 13 ") }

set optking { dynamic_level = 1
 geom_maxiter = 250
 print_trajectory_xyz_file = True }

energy, wfn = optimize('B3LYP-D3', return_wfn=True)

import os
os.chdir(os.environ['HTMD_PSI4_WORKDIR'])

oeprop(wfn, 'DIPOLE', 'QUADRUPOLE', 'MULLIKEN_CHARGES')

with open('psi4out.xyz', 'w') as f:
    f.write('18 ' )
    f.write('%.12f\n' % energy)
    f.write(MOL.save_string_xyz())
--------------------------------------------------------------------------

    Molecular point group: c1
  Charge       = 1
  Multiplicity = 1
  Basis Set: 6-31G*
    Blend: 6-31G*
   => B3LYP Composite Functional <=
  Basis Set: (6-31G* AUX)
    Blend: CC-PVDZ-JKFIT
  @DF-RKS Final Energy:  -381.47019540933070
    Total Energy =                       -381.4701954093306995
    Molecular point group: c1
  Basis Set: 6-31G*
    Blend: 6-31G*
  Basis Set: (6-31G* AUX)
    Blend: CC-PVDZ-JKFIT
   => B3LYP Composite Functional <=
  Basis Set: 6-31G*
    Blend: 6-31G*
   => B3LYP Composite Functional <=
  Basis Set: (6-31G* AUX)
    Blend: CC-PVDZ-JKFIT
  @DF-RKS Final Energy:  -381.47025635889696
    Total Energy =                       -381.4702563588970179
  Basis Set: 6-31G*
    Blend: 6-31G*
  Basis Set: (6-31G* AUX)
  @DF-RKS Final Energy:  -381.47031260654381
    Total Energy =                       -381.4703126065438141
   => B3LYP Composite Functional <=
  Basis Set: (6-31G* AUX)
    Blend: CC-PVDZ-JKFIT
  @DF-RKS Final Energy:  -381.47031561225367
    Total Energy =                       -381.4703156122536711
  Basis Set: 6-31G*
    Blend: 6-31G*
  Basis Set: (6-31G* AUX)
    Blend: CC-PVDZ-JKFIT
   => B3LYP Composite Functional <=
  Charge       = 1
  Multiplicity = 1
  Basis Set: 6-31G*
    Blend: 6-31G*
   => B3LYP Composite Functional <=
  Basis Set: (6-31G* AUX)
    Blend: CC-PVDZ-JKFIT

    Orbital Energies (a.u.)
    -----------------------

    Doubly Occupied:

       1A    -14.567274     2A    -14.567239     3A    -10.496990
       4A    -10.373938     5A    -10.357121     6A    -10.356940
       7A    -10.343972     8A    -10.341077     9A    -10.341021
      10A     -1.183395    11A     -1.091156    12A     -1.014862
      13A     -0.927117    14A     -0.902969    15A     -0.845734
      16A     -0.785611    17A     -0.774168    18A     -0.740049
      19A     -0.733856    20A     -0.688825    21A     -0.669161
      22A     -0.626800    23A     -0.615914    24A     -0.588978
      25A     -0.579731    26A     -0.573555    27A     -0.518382
      28A     -0.506470    29A     -0.498742    30A     -0.472409
      31A     -0.412283    32A     -0.406370

  @DF-RKS Final Energy:  -381.47031613332689

   => Energetics <=

    Nuclear Repulsion Energy =            416.9150806301664147
    One-Electron Energy =               -1329.0186225848319737
    Two-Electron Energy =                 575.0513155244583459
    DFT Exchange-Correlation Energy =     -44.4062280731196637
    Empirical Dispersion Energy =          -0.0118616300000000
    PCM Polarization Energy =               0.0000000000000000
    EFP Energy =                            0.0000000000000000
    Total Energy =                       -381.4703161333269463
    Molecular point group: c1
  Basis Set: 6-31G*
    Blend: 6-31G*
  Basis Set: (6-31G* AUX)
    Blend: CC-PVDZ-JKFIT
   => B3LYP Composite Functional <=

  -Total Gradient:
     Atom            X                  Y                   Z
    ------   -----------------  -----------------  -----------------
       1       -0.002825108848     0.000483478673    -0.000044330141
       2        0.001516883278    -0.000080250003    -0.000017366871
       3       -0.000007994073    -0.000000771530     0.000005951881
       4       -0.000012222627    -0.000001565837     0.000011748122
       5        0.000000099413    -0.000007724251     0.000008296931
       6        0.000004669669     0.000002281372    -0.000019067504
       7        0.002668109054    -0.001210068343     0.000023862597
       8        0.000003954514     0.000005923120    -0.000006883525
       9        0.000001376643     0.000000185233    -0.000004951408
      10        0.000008198832    -0.000002047642    -0.000002073944
      11       -0.000001173619     0.000002844011    -0.000003466262
      12       -0.000000953186     0.000003916434     0.000010942259
      13       -0.001328736815     0.000775127606     0.000020453061
      14       -0.000018694029     0.000002773565     0.000007862384
      15        0.000002557060    -0.000006178686    -0.000001372152
      16        0.000019414117     0.000017686649    -0.000016196567
      17       -0.000019128458     0.000013249312     0.000005776714
      18       -0.000010589535     0.000003757420    -0.000002032245

  **** Optimization is complete! (in 5 steps) ****
    Final optimized geometry and variables:
    Molecular point group: c1

    Geometry (in Angstrom), charge = 1, multiplicity = 1:

    C           -0.015097926629     0.000255553004    -0.177507834110
    C            0.019794087662     1.219031339030     0.526779672551
    C            0.024546618445     1.213339089239     1.917649598423
    C            0.006896676589     0.000442116113     2.613296329890
    C           -0.016958503770    -1.212656928798     1.918576666259
    C           -0.027351327583    -1.218561687599     0.527610022910
    C           -0.001259250678    -0.002852942340    -1.643721674520
    H           -0.015993623794     2.166142934062    -0.004045117369
    H            0.031751206684     2.153540428858     2.459368097958
    H            0.013688503084     0.000736693013     3.698922645520
    H           -0.013735803706    -2.152687226551     2.460619277397
    H            0.007030799341    -2.165661078060    -0.003309759751
    N            0.614025641792     0.972032560578    -2.308672814927
    N           -0.622720133425    -0.969785198269    -2.314483866812
    H           -0.567492093948    -1.060998457688    -3.321978113094
    H           -1.241796102487    -1.605928601710    -1.829882704721
    H            1.233984583920     1.605035349788    -1.821031801404
    H            0.570688648503     1.058574057330    -3.317187624202

  Mulliken Charges: (a.u.)
   Center  Symbol    Alpha    Beta     Spin     Total
       1     C     2.95187  2.95187  0.00000  0.09627
       2     C     3.08376  3.08376  0.00000 -0.16752
       3     C     3.06247  3.06247  0.00000 -0.12495
       4     C     3.05134  3.05134  0.00000 -0.10268
       5     C     3.06215  3.06215  0.00000 -0.12431
       6     C     3.08330  3.08330  0.00000 -0.16660
       7     C     2.71795  2.71795  0.00000  0.56409
       8     H     0.41467  0.41467  0.00000  0.17065
       9     H     0.40529  0.40529  0.00000  0.18941
      10     H     0.40358  0.40358  0.00000  0.19284
      11     H     0.40529  0.40529  0.00000  0.18943
      12     H     0.41487  0.41487  0.00000  0.17027
      13     N     3.86617  3.86617  0.00000 -0.73234
      14     N     3.86545  3.86545  0.00000 -0.73089
      15     H     0.30577  0.30577  0.00000  0.38846
      16     H     0.30002  0.30002  0.00000  0.39996
      17     H     0.30029  0.30029  0.00000  0.39943
      18     H     0.30576  0.30576  0.00000  0.38847

   Total alpha = 32.00000, Total beta = 32.00000, Total charge =  1.00000

*** Psi4 exiting successfully. Buy a developer a beer!
