                               Psi4 1.1 release

  ==> Input File <==

--------------------------------------------------------------------------
set_num_threads(1)
set_memory(4203741184)

set { reference rks }
set { basis cc-pVDZ }

molecule MOL {
    0 1
    noreorient
    nocom
    symmetry c1
    O    1.050400   0.042900  -0.048100
    C    2.474100   0.047400  -0.029000
    C    3.002600  -1.068900  -0.932000
    N    3.818483  -2.033305  -0.195959
    H    0.760400   0.728400   0.578000
    H    2.809900  -0.097900   1.003200
    H    2.817400   1.026800  -0.378600
    H    3.589250  -0.637286  -1.751323
    H    2.157533  -1.586803  -1.399648
    H    4.665883  -1.574240   0.136688
    H    4.129625  -2.759597  -0.840894
}

set optking { frozen_dihedral = (" 1 2 3 4 ") }

energy, wfn = energy('B3LYP-D3', return_wfn=True)

import os
os.chdir(os.environ['HTMD_PSI4_WORKDIR'])

oeprop(wfn, 'DIPOLE', 'QUADRUPOLE', 'MULLIKEN_CHARGES')

with open('psi4out.xyz', 'w') as f:
    f.write('11 ' )
    f.write('%.12f\n' % energy)
    f.write(MOL.save_string_xyz())
--------------------------------------------------------------------------

    Molecular point group: c1

    Geometry (in Angstrom), charge = 0, multiplicity = 1:

       Center              X                  Y                   Z               Mass
    ------------   -----------------  -----------------  -----------------  -----------------
           O          1.050400000000     0.042900000000    -0.048100000000    15.994914619560
           C          2.474100000000     0.047400000000    -0.029000000000    12.000000000000
           C          3.002600000000    -1.068900000000    -0.932000000000    12.000000000000
           N          3.818483000000    -2.033305000000    -0.195959000000    14.003074004780
           H          0.760400000000     0.728400000000     0.578000000000     1.007825032070
           H          2.809900000000    -0.097900000000     1.003200000000     1.007825032070
           H          2.817400000000     1.026800000000    -0.378600000000     1.007825032070
           H          3.589250000000    -0.637286000000    -1.751323000000     1.007825032070
           H          2.157533000000    -1.586803000000    -1.399648000000     1.007825032070
           H          4.665883000000    -1.574240000000     0.136688000000     1.007825032070
           H          4.129625000000    -2.759597000000    -0.840894000000     1.007825032070

  Charge       = 0
  Multiplicity = 1
  Basis Set: CC-PVDZ
    Blend: CC-PVDZ
   => B3LYP Composite Functional <=
  Basis Set: (CC-PVDZ AUX)
    Blend: CC-PVDZ-JKFIT

    Orbital Energies (a.u.)
    -----------------------

    Doubly Occupied:

       1A    -19.124300     2A    -14.303070     3A    -10.222261
       4A    -10.200846     5A     -1.007170     6A     -0.875567
       7A     -0.712527     8A     -0.596795     9A     -0.507603
      10A     -0.477021    11A     -0.466574    12A     -0.396528
      13A     -0.389424    14A     -0.370830    15A     -0.322643
      16A     -0.257178    17A     -0.229440

  @DF-RKS Final Energy:  -210.38589578881346

   => Energetics <=

    Nuclear Repulsion Energy =            130.9826179704692208
    One-Electron Energy =                -544.9337079090562383
    Two-Electron Energy =                 227.0594002684998145
    DFT Exchange-Correlation Energy =     -23.4895084787262611
    Empirical Dispersion Energy =          -0.0046976400000000
    PCM Polarization Energy =               0.0000000000000000
    EFP Energy =                            0.0000000000000000
    Total Energy =                       -210.3858957888134569

  Mulliken Charges: (a.u.)
   Center  Symbol    Alpha    Beta     Spin     Total
       1     O     4.14009  4.14009  0.00000 -0.28018
       2     C     2.92472  2.92472  0.00000  0.15057
       3     C     2.98183  2.98183  0.00000  0.03633
       4     N     3.59154  3.59154  0.00000 -0.18309
       5     H     0.43200  0.43200  0.00000  0.13600
       6     H     0.50169  0.50169  0.00000 -0.00337
       7     H     0.50460  0.50460  0.00000 -0.00920
       8     H     0.50574  0.50574  0.00000 -0.01149
       9     H     0.48549  0.48549  0.00000  0.02903
      10     H     0.46665  0.46665  0.00000  0.06670
      11     H     0.46565  0.46565  0.00000  0.06870

   Total alpha = 17.00000, Total beta = 17.00000, Total charge = -0.00000

*** Psi4 exiting successfully. Buy a developer a beer!
