                               Psi4 1.1 release

  ==> Input File <==

--------------------------------------------------------------------------
set {
	reference rks
	basis 6-31G*
}

set_num_threads( 8 )
memory 2 gb

molecule MOL {
1 1

C	 0.618874	 1.116864	 -2.380530
C	 1.881639	 1.595586	 -1.983901
C	 2.465633	 2.652135	 -2.675549
C	 1.795124	 3.239606	 -3.752824
C	 0.538456	 2.769254	 -4.146245
C	 -0.051515	 1.707182	 -3.468264
C	 -0.000000	 -0.000000	 -1.658508
H	 2.424822	 1.114691	 -1.175242
H	 3.446780	 3.010771	 -2.381841
H	 2.253161	 4.066211	 -4.287201
H	 0.015023	 3.236641	 -4.973953
H	 -1.046148	 1.373360	 -3.750231
N	 -0.712589	 -0.905950	 -2.322235
N	 0.152534	 -0.104763	 -0.341382
H	 -0.175290	 -0.903701	 0.188708
H	 0.551549	 0.663113	 0.182484
H	 -1.377189	 -1.485970	 -1.827091
H	 -0.673431	 -1.006470	 -3.329771

	symmetry c1
}
set optking { dynamic_level = 1 }
set optking {
	frozen_dihedral = ("
		1 7 13 17
	")
}

ee,wfn = optimize('b3lyp-d3', return_wfn=True)
oeprop( wfn, 'DIPOLE', 'QUADRUPOLE', 'MULLIKEN_CHARGES')
f=open( 'psi4out.xyz', 'w' )
f.write( "18  " )
f.write( str(ee) + "\n" )
f.write( MOL.save_string_xyz() )
f.close()
--------------------------------------------------------------------------

    Molecular point group: c1
  Charge       = 1
  Multiplicity = 1
  Basis Set: 6-31G*
    Blend: 6-31G*
   => B3LYP Composite Functional <=
  Basis Set: (6-31G* AUX)
    Blend: CC-PVDZ-JKFIT
  @DF-RKS Final Energy:  -381.46915362621547
    Total Energy =                       -381.4691536262155296
    Molecular point group: c1
  Basis Set: 6-31G*
    Blend: 6-31G*
  Basis Set: (6-31G* AUX)
    Blend: CC-PVDZ-JKFIT
   => B3LYP Composite Functional <=
  Basis Set: 6-31G*
    Blend: 6-31G*
   => B3LYP Composite Functional <=
  Basis Set: (6-31G* AUX)
    Blend: CC-PVDZ-JKFIT
  @DF-RKS Final Energy:  -381.46970225171003
    Total Energy =                       -381.4697022517100322
  Basis Set: 6-31G*
    Blend: 6-31G*
  Basis Set: (6-31G* AUX)
  @DF-RKS Final Energy:  -381.46982516201626
    Total Energy =                       -381.4698251620162637
  @DF-RKS Final Energy:  -381.46984353038982
    Total Energy =                       -381.4698435303897668
   => B3LYP Composite Functional <=
  Basis Set: (6-31G* AUX)
    Blend: CC-PVDZ-JKFIT
  @DF-RKS Final Energy:  -381.46984565051702
    Total Energy =                       -381.4698456505170157
  Basis Set: 6-31G*
    Blend: 6-31G*
  Basis Set: (6-31G* AUX)
    Blend: CC-PVDZ-JKFIT
   => B3LYP Composite Functional <=
  Charge       = 1
  Multiplicity = 1
  Basis Set: 6-31G*
    Blend: 6-31G*
   => B3LYP Composite Functional <=
  Basis Set: (6-31G* AUX)
    Blend: CC-PVDZ-JKFIT

    Orbital Energies (a.u.)
    -----------------------

    Doubly Occupied:

       1A    -14.567677     2A    -14.566160     3A    -10.496513
       4A    -10.373490     5A    -10.357318     6A    -10.356764
       7A    -10.344188     8A    -10.341224     9A    -10.341111
      10A     -1.182850    11A     -1.090694    12A     -1.014882
      13A     -0.926897    14A     -0.902987    15A     -0.844966
      16A     -0.785285    17A     -0.772620    18A     -0.741854
      19A     -0.732770    20A     -0.688405    21A     -0.669924
      22A     -0.626500    23A     -0.616714    24A     -0.585529
      25A     -0.579949    26A     -0.572533    27A     -0.519279
      28A     -0.506188    29A     -0.498725    30A     -0.471951
      31A     -0.412892    32A     -0.406513

  @DF-RKS Final Energy:  -381.46984581102271

   => Energetics <=

    Nuclear Repulsion Energy =            416.8775630797436520
    One-Electron Energy =               -1328.9565347086772817
    Two-Electron Energy =                 575.0264931845021010
    DFT Exchange-Correlation Energy =     -44.4054216265911563
    Empirical Dispersion Energy =          -0.0119457400000000
    PCM Polarization Energy =               0.0000000000000000
    EFP Energy =                            0.0000000000000000
    Total Energy =                       -381.4698458110227079
    Molecular point group: c1
  Basis Set: 6-31G*
    Blend: 6-31G*
  Basis Set: (6-31G* AUX)
    Blend: CC-PVDZ-JKFIT
   => B3LYP Composite Functional <=

  -Total Gradient:
     Atom            X                  Y                   Z
    ------   -----------------  -----------------  -----------------
       1       -0.001953568709     0.001212668228     0.000348025927
       2        0.000022758110     0.000026093336     0.000015365872
       3        0.000000227936    -0.000012662448    -0.000019750801
       4        0.000009434643     0.000011843108     0.000011970540
       5       -0.000020090637    -0.000012403295     0.000005929031
       6        0.000037394710     0.000016039241     0.000026137648
       7        0.001904063785    -0.000971991932    -0.000788424473
       8       -0.000003936584    -0.000002974312    -0.000013484641
       9       -0.000004414420     0.000000750597    -0.000001955683
      10        0.000001892032    -0.000004108868     0.000000791454
      11        0.000007625984    -0.000009070929    -0.000001345654
      12       -0.000014408263    -0.000014603624    -0.000008543011
      13        0.002377653293    -0.002547403320     0.000967200084
      14        0.000074773420    -0.000002532987     0.000103306277
      15        0.000004503320     0.000016155514    -0.000042873105
      16       -0.000030592094    -0.000025568300    -0.000006462208
      17       -0.002424017948     0.002346855398    -0.000576387506
      18        0.000003775331    -0.000046627908    -0.000009190665

  **** Optimization is complete! (in 6 steps) ****
    Final optimized geometry and variables:
    Molecular point group: c1

    Geometry (in Angstrom), charge = 1, multiplicity = 1:

    C           -0.074810916513    -0.150860383258     0.091602017921
    C            1.184913318374     0.336006204933     0.490107963669
    C            1.763607193962     1.396185394335    -0.199624900832
    C            1.091542914098     1.978648376500    -1.279020680856
    C           -0.160787067140     1.499660661495    -1.676068613094
    C           -0.745346603298     0.433968659379    -0.999408618840
    C           -0.692926202608    -1.264229382625     0.816193804098
    H            1.728856530675    -0.142311515943     1.299816251682
    H            2.741768211209     1.761458762910     0.095813858323
    H            1.545532003567     2.807918877414    -1.812769839790
    H           -0.684501304589     1.962872439408    -2.505924605796
    H           -1.736599932073     0.093342771231    -1.284968540591
    N           -1.411144634586    -2.175723640556     0.162619206840
    N           -0.550171555059    -1.360239033368     2.135332197617
    H           -0.864905771975    -2.166859901256     2.661846281093
    H           -0.151332283229    -0.592217027250     2.659064613415
    H           -2.085298887077    -2.774316695035     0.625435951191
    H           -1.416154800507    -2.178481295303    -0.849027902319

  Mulliken Charges: (a.u.)
   Center  Symbol    Alpha    Beta     Spin     Total
       1     C     2.95569  2.95569  0.00000  0.08862
       2     C     3.08172  3.08172  0.00000 -0.16344
       3     C     3.06242  3.06242  0.00000 -0.12485
       4     C     3.05123  3.05123  0.00000 -0.10246
       5     C     3.06246  3.06246  0.00000 -0.12492
       6     C     3.08136  3.08136  0.00000 -0.16272
       7     C     2.72487  2.72487  0.00000  0.55027
       8     H     0.41373  0.41373  0.00000  0.17254
       9     H     0.40517  0.40517  0.00000  0.18965
      10     H     0.40357  0.40357  0.00000  0.19287
      11     H     0.40527  0.40527  0.00000  0.18946
      12     H     0.41531  0.41531  0.00000  0.16938
      13     N     3.86395  3.86395  0.00000 -0.72790
      14     N     3.86213  3.86213  0.00000 -0.72426
      15     H     0.30518  0.30518  0.00000  0.38964
      16     H     0.29997  0.29997  0.00000  0.40005
      17     H     0.30550  0.30550  0.00000  0.38899
      18     H     0.30046  0.30046  0.00000  0.39908

   Total alpha = 32.00000, Total beta = 32.00000, Total charge =  1.00000

*** Psi4 exiting successfully. Buy a developer a beer!
