                              Psi4 1.0.54 Driver

  ==> Input File <==

--------------------------------------------------------------------------
set_num_threads(1)
set_memory(3145728000)

set { reference rks }
set { basis 6-31G* }

molecule MOL {
    1 1
    noreorient
    nocom
    symmetry c1
    C    0.000000   0.000000  -0.177864
    C    0.036678   1.219374   0.524165
    C    0.031764   1.213119   1.915444
    C   -0.000000  -0.000000   2.610107
    C   -0.031764  -1.213119   1.915444
    C   -0.036677  -1.219374   0.524165
    C    0.000000  -0.000000  -1.644734
    H    0.018170   2.164705  -0.010853
    H    0.042402   2.152895   2.457886
    H   -0.000000  -0.000000   3.695756
    H   -0.042402  -2.152895   2.457886
    H   -0.018170  -2.164705  -0.010853
    N   -0.712590  -0.905950  -2.308460
    N    0.712590   0.905950  -2.308461
    H    0.673432   1.006469  -3.315997
    H    1.377190   1.485970  -1.813317
    H   -0.492601  -1.111470  -3.274199
    H   -1.439147  -1.461701  -1.872545
}

set optking { frozen_dihedral = (" 1 7 13 17 ") }

set optking { dynamic_level = 1
 geom_maxiter = 250
 print_trajectory_xyz_file = True }

energy, wfn = optimize('B3LYP-D3', return_wfn=True)

import os
os.chdir(os.environ['HTMD_PSI4_WORKDIR'])

oeprop(wfn, 'DIPOLE', 'QUADRUPOLE', 'MULLIKEN_CHARGES')

with open('psi4out.xyz', 'w') as f:
    f.write('18 ' )
    f.write('%.12f\n' % energy)
    f.write(MOL.save_string_xyz())
--------------------------------------------------------------------------

    Molecular point group: c1
  Charge       = 1
  Multiplicity = 1
  Basis Set: 6-31G*
   => B3LYP-D3 Composite Functional <=
  Basis Set:
  @DF-RKS Final Energy:  -381.46915362015199
    Total Energy =                       -381.4691536201518147
    Molecular point group: c1
  Basis Set: 6-31G*
  Basis Set:
   => B3LYP-D3 Composite Functional <=
  Basis Set: 6-31G*
   => B3LYP-D3 Composite Functional <=
  Basis Set:
  @DF-RKS Final Energy:  -381.46970225104957
    Total Energy =                       -381.4697022510495117
  Basis Set: 6-31G*
  Basis Set:
   => B3LYP-D3 Composite Functional <=
  Basis Set: 6-31G*
   => B3LYP-D3 Composite Functional <=
  Basis Set:
  @DF-RKS Final Energy:  -381.46982516269497
    Total Energy =                       -381.4698251626949741
  Basis Set: 6-31G*
  Basis Set:
   => B3LYP-D3 Composite Functional <=
  Basis Set:
  @DF-RKS Final Energy:  -381.46984353163430
    Total Energy =                       -381.4698435316343534
  Basis Set: 6-31G*
  Basis Set:
   => B3LYP-D3 Composite Functional <=
  Basis Set: 6-31G*
   => B3LYP-D3 Composite Functional <=
  Basis Set:
  @DF-RKS Final Energy:  -381.46984565043238
    Total Energy =                       -381.4698456504323190
  Basis Set: 6-31G*
  Basis Set:
   => B3LYP-D3 Composite Functional <=
  Charge       = 1
  Multiplicity = 1
  Basis Set: 6-31G*
   => B3LYP-D3 Composite Functional <=
  Basis Set:

    Orbital Energies (a.u.)
    -----------------------

    Doubly Occupied:

       1A    -14.567677     2A    -14.566160     3A    -10.496513
       4A    -10.373490     5A    -10.357318     6A    -10.356764
       7A    -10.344188     8A    -10.341224     9A    -10.341110
      10A     -1.182850    11A     -1.090694    12A     -1.014882
      13A     -0.926897    14A     -0.902987    15A     -0.844966
      16A     -0.785285    17A     -0.772620    18A     -0.741854
      19A     -0.732771    20A     -0.688404    21A     -0.669924
      22A     -0.626500    23A     -0.616714    24A     -0.585529
      25A     -0.579949    26A     -0.572533    27A     -0.519279
      28A     -0.506188    29A     -0.498725    30A     -0.471951
      31A     -0.412892    32A     -0.406513

  @DF-RKS Final Energy:  -381.46984581265968

   => Energetics <=

    Nuclear Repulsion Energy =            416.8775711909816550
    One-Electron Energy =               -1328.9565500620999501
    Two-Electron Energy =                 575.0265008093666665
    DFT Exchange-Correlation Energy =     -44.4054220109080475
    Empirical Dispersion Energy =          -0.0119457400000000
    PCM Polarization Energy =               0.0000000000000000
    EFP Energy =                            0.0000000000000000
    Total Energy =                       -381.4698458126597416
    Molecular point group: c1
  Basis Set: 6-31G*
  Basis Set:
   => B3LYP-D3 Composite Functional <=

  -Total Gradient:
     Atom            X                  Y                   Z
    ------   -----------------  -----------------  -----------------
       1        0.001819133239    -0.001447036747    -0.000071655565
       2        0.000017180201     0.000025584527     0.000021994167
       3       -0.000020905321    -0.000010672266     0.000000071972
       4        0.000011382179     0.000013890874     0.000007008459
       5        0.000004163449    -0.000011829383    -0.000020929997
       6        0.000011514123     0.000044608094     0.000015181733
       7       -0.001925340326     0.001132028583     0.000451195372
       8       -0.000008922817    -0.000010963806     0.000002743505
       9        0.000001068977    -0.000004842279    -0.000000364696
      10       -0.000002931084     0.000002254409    -0.000002789568
      11       -0.000009886856     0.000006014048    -0.000003063827
      12       -0.000008880972    -0.000015646919    -0.000012954817
      13       -0.002014301579     0.002650615786    -0.001412564400
      14        0.000033361812     0.000121149543    -0.000021268651
      15       -0.000018909382    -0.000022715723     0.000035329310
      16       -0.000007922010    -0.000026793916    -0.000029203360
      17        0.002154558312    -0.002444532493     0.001047782359
      18       -0.000037477309     0.000000660303    -0.000029388158

  **** Optimization is complete! (in 6 steps) ****
    Final optimized geometry and variables:
    Molecular point group: c1

    Geometry (in Angstrom), charge = 1, multiplicity = 1:

    C           -0.008999147615     0.006206537301    -0.180312030832
    C            0.035400828749     1.223707936242     0.525711675272
    C            0.036265465697     1.214078291398     1.916576103015
    C            0.000560705691    -0.001217506393     2.607813952985
    C           -0.040904629478    -1.212419127558     1.910191034447
    C           -0.051255043002    -1.214858283923     0.519089063500
    C           -0.005414593351     0.008104861295    -1.645465695648
    H            0.018910465284     2.170101268051    -0.007539734279
    H            0.053537273478     2.152036727720     2.461959557649
    H            0.004369501009    -0.004280210978     3.693474976171
    H           -0.055492897111    -2.153414366648     2.450392674866
    H           -0.040845335597    -2.159142514773    -0.017914132918
    N           -0.712731229290    -0.896032340370    -2.320786711794
    N            0.718186549202     0.906795001210    -2.307643808734
    H            0.666328662210     1.016247294650    -3.313746589559
    H            1.382867287097     1.486585091678    -1.812397340285
    H           -0.521449252526    -1.127088256090    -3.288785449314
    H           -1.360459610448    -1.496142402812    -1.827047544542

  Mulliken Charges: (a.u.)
   Center  Symbol    Alpha    Beta     Spin     Total
       1     C     2.95569  2.95569  0.00000  0.08862
       2     C     3.08172  3.08172  0.00000 -0.16344
       3     C     3.06242  3.06242  0.00000 -0.12485
       4     C     3.05123  3.05123  0.00000 -0.10246
       5     C     3.06246  3.06246  0.00000 -0.12492
       6     C     3.08136  3.08136  0.00000 -0.16272
       7     C     2.72487  2.72487  0.00000  0.55027
       8     H     0.41373  0.41373  0.00000  0.17254
       9     H     0.40517  0.40517  0.00000  0.18965
      10     H     0.40357  0.40357  0.00000  0.19287
      11     H     0.40527  0.40527  0.00000  0.18946
      12     H     0.41531  0.41531  0.00000  0.16938
      13     N     3.86395  3.86395  0.00000 -0.72790
      14     N     3.86213  3.86213  0.00000 -0.72426
      15     H     0.30518  0.30518  0.00000  0.38964
      16     H     0.29997  0.29997  0.00000  0.40005
      17     H     0.30550  0.30550  0.00000  0.38899
      18     H     0.30046  0.30046  0.00000  0.39908

   Total alpha = 32.00000, Total beta = 32.00000, Total charge =  1.00000

*** Psi4 exiting successfully. Buy a developer a beer!
