                               Psi4 1.1 release

  ==> Input File <==

--------------------------------------------------------------------------
set_num_threads(1)
set_memory(3145728000)

set { reference rks }
set { basis 6-31G* }

molecule MOL {
    1 1
    noreorient
    nocom
    symmetry c1
    C    0.000000   0.000000  -0.177864
    C    0.036678   1.219374   0.524165
    C    0.031764   1.213119   1.915444
    C   -0.000000  -0.000000   2.610107
    C   -0.031764  -1.213119   1.915444
    C   -0.036677  -1.219374   0.524165
    C    0.000000  -0.000000  -1.644734
    H    0.018170   2.164705  -0.010853
    H    0.042402   2.152895   2.457886
    H   -0.000000  -0.000000   3.695756
    H   -0.042402  -2.152895   2.457886
    H   -0.018170  -2.164705  -0.010853
    N   -0.712590  -0.905950  -2.308460
    N    0.712590   0.905950  -2.308461
    H    0.673432   1.006469  -3.315997
    H    1.377190   1.485970  -1.813317
    H   -0.427399  -1.876455  -2.300040
    H   -1.581647  -0.684646  -2.780191
}

set optking { frozen_dihedral = (" 1 7 13 17 ") }

set optking { dynamic_level = 1
 geom_maxiter = 250
 print_trajectory_xyz_file = True }

energy, wfn = optimize('B3LYP-D3', return_wfn=True)

import os
os.chdir(os.environ['HTMD_PSI4_WORKDIR'])

oeprop(wfn, 'DIPOLE', 'QUADRUPOLE', 'MULLIKEN_CHARGES')

with open('psi4out.xyz', 'w') as f:
    f.write('18 ' )
    f.write('%.12f\n' % energy)
    f.write(MOL.save_string_xyz())
--------------------------------------------------------------------------

    Molecular point group: c1
  Charge       = 1
  Multiplicity = 1
  Basis Set: 6-31G*
    Blend: 6-31G*
   => B3LYP Composite Functional <=
  Basis Set: (6-31G* AUX)
    Blend: CC-PVDZ-JKFIT
  @DF-RKS Final Energy:  -381.42729726921334
    Total Energy =                       -381.4272972692132839
    Molecular point group: c1
  Basis Set: 6-31G*
    Blend: 6-31G*
  Basis Set: (6-31G* AUX)
    Blend: CC-PVDZ-JKFIT
   => B3LYP Composite Functional <=
  Basis Set: 6-31G*
    Blend: 6-31G*
   => B3LYP Composite Functional <=
  Basis Set: (6-31G* AUX)
    Blend: CC-PVDZ-JKFIT
  @DF-RKS Final Energy:  -381.43441012873399
    Total Energy =                       -381.4344101287339868
  Basis Set: 6-31G*
    Blend: 6-31G*
  Basis Set: (6-31G* AUX)
  @DF-RKS Final Energy:  -381.43989846383113
    Total Energy =                       -381.4398984638311276
  @DF-RKS Final Energy:  -381.44533682776279
    Total Energy =                       -381.4453368277627874
  @DF-RKS Final Energy:  -381.44729589158521
    Total Energy =                       -381.4472958915852132
  @DF-RKS Final Energy:  -381.45232940351224
    Total Energy =                       -381.4523294035121808
  @DF-RKS Final Energy:  -381.44729589158749
    Total Energy =                       -381.4472958915874301
  @DF-RKS Final Energy:  -381.45349634683191
    Total Energy =                       -381.4534963468319688
  @DF-RKS Final Energy:  -381.45491202446129
    Total Energy =                       -381.4549120244612936
  @DF-RKS Final Energy:  -381.45605840106475
    Total Energy =                       -381.4560584010647517
  @DF-RKS Final Energy:  -381.45693819124881
    Total Energy =                       -381.4569381912487529
  @DF-RKS Final Energy:  -381.45744847618823
    Total Energy =                       -381.4574484761882331
  @DF-RKS Final Energy:  -381.45756146482250
    Total Energy =                       -381.4575614648225041
   => B3LYP Composite Functional <=
  Basis Set: (6-31G* AUX)
    Blend: CC-PVDZ-JKFIT
  @DF-RKS Final Energy:  -381.45757798053728
    Total Energy =                       -381.4575779805372804
  Basis Set: 6-31G*
    Blend: 6-31G*
  Basis Set: (6-31G* AUX)
    Blend: CC-PVDZ-JKFIT
   => B3LYP Composite Functional <=
  Charge       = 1
  Multiplicity = 1
  Basis Set: 6-31G*
    Blend: 6-31G*
   => B3LYP Composite Functional <=
  Basis Set: (6-31G* AUX)
    Blend: CC-PVDZ-JKFIT

    Orbital Energies (a.u.)
    -----------------------

    Doubly Occupied:

       1A    -14.577716     2A    -14.553803     3A    -10.496571
       4A    -10.372534     5A    -10.359285     6A    -10.355501
       7A    -10.347741     8A    -10.342591     9A    -10.340599
      10A     -1.181679    11A     -1.086862    12A     -1.015414
      13A     -0.928854    14A     -0.903438    15A     -0.842550
      16A     -0.778188    17A     -0.771764    18A     -0.736640
      19A     -0.725155    20A     -0.694887    21A     -0.668259
      22A     -0.626291    23A     -0.606334    24A     -0.581329
      25A     -0.580552    26A     -0.565428    27A     -0.517417
      28A     -0.507232    29A     -0.498595    30A     -0.478425
      31A     -0.414645    32A     -0.406993

  @DF-RKS Final Energy:  -381.45757880959144

   => Energetics <=

    Nuclear Repulsion Energy =            416.4232723922543755
    One-Electron Energy =               -1328.0945258465437746
    Two-Electron Energy =                 574.6209796409058299
    DFT Exchange-Correlation Energy =     -44.3955778862079313
    Empirical Dispersion Energy =          -0.0117271100000000
    PCM Polarization Energy =               0.0000000000000000
    EFP Energy =                            0.0000000000000000
    Total Energy =                       -381.4575788095914959
    Molecular point group: c1
  Basis Set: 6-31G*
    Blend: 6-31G*
  Basis Set: (6-31G* AUX)
    Blend: CC-PVDZ-JKFIT
   => B3LYP Composite Functional <=

  -Total Gradient:
     Atom            X                  Y                   Z
    ------   -----------------  -----------------  -----------------
       1       -0.010312167258     0.000594273815     0.000060229091
       2        0.000020938549     0.000026849891     0.000036529403
       3       -0.000015387003    -0.000001598120    -0.000006669939
       4       -0.000006061084     0.000008667943    -0.000010029923
       5        0.000001614474     0.000003273940    -0.000018311073
       6        0.000004660806     0.000016291892     0.000019332501
       7        0.017192875374     0.001144458880    -0.004090876161
       8       -0.000001220791    -0.000026632123    -0.000000797369
       9        0.000006180279    -0.000018105693    -0.000002087197
      10        0.000007716910    -0.000000286454    -0.000002631547
      11        0.000002107816     0.000013178251    -0.000008696449
      12        0.000017709454    -0.000014257582    -0.000011170898
      13       -0.012150827742    -0.008082754526     0.015988526198
      14        0.000106454130     0.000103673727     0.000008097641
      15        0.000000041081    -0.000000919715     0.000009585011
      16        0.000014821499    -0.000068432829    -0.000039205680
      17        0.005113381119     0.006317896345    -0.011950159582
      18       -0.000006221078    -0.000021943250     0.000008176916

  **** Optimization is complete! (in 9 steps) ****
    Final optimized geometry and variables:
    Molecular point group: c1

    Geometry (in Angstrom), charge = 1, multiplicity = 1:

    C            0.034312067879    -0.013652089110    -0.155644234874
    C            0.554351796057     1.094840830400     0.548793290708
    C            0.538460035613     1.099723567443     1.936803016781
    C            0.014373466588     0.002763411039     2.632518175449
    C           -0.488118023816    -1.104531174368     1.941350600914
    C           -0.475378360150    -1.123033358592     0.551442414761
    C            0.014096820615    -0.026216423190    -1.609068618131
    H            1.011708764346     1.923530842548     0.014680061922
    H            0.946343244182     1.945811041002     2.480040379197
    H            0.002568846350     0.011030118109     3.718247455200
    H           -0.897635363722    -1.948066704204     2.487399823289
    H           -0.893051231822    -1.963128691687     0.007469958670
    N           -0.062831996462    -1.217213283145    -2.271254407912
    N           -0.153993070056     1.104048337241    -2.284583478175
    H           -0.099548087407     1.144485558261    -3.296285897761
    H           -0.387515090514     1.965014069323    -1.803599035965
    H            0.761132640422    -1.813354654839    -2.230590687825
    H           -0.377699458102    -1.150713396231    -3.237635816249

  Mulliken Charges: (a.u.)
   Center  Symbol    Alpha    Beta     Spin     Total
       1     C     2.95079  2.95079  0.00000  0.09841
       2     C     3.08463  3.08463  0.00000 -0.16926
       3     C     3.06274  3.06274  0.00000 -0.12548
       4     C     3.04973  3.04973  0.00000 -0.09946
       5     C     3.06261  3.06261  0.00000 -0.12522
       6     C     3.07163  3.07163  0.00000 -0.14325
       7     C     2.75683  2.75683  0.00000  0.48633
       8     H     0.41547  0.41547  0.00000  0.16906
       9     H     0.40495  0.40495  0.00000  0.19011
      10     H     0.40259  0.40259  0.00000  0.19482
      11     H     0.40443  0.40443  0.00000  0.19114
      12     H     0.40417  0.40417  0.00000  0.19167
      13     N     3.85804  3.85804  0.00000 -0.71608
      14     N     3.84889  3.84889  0.00000 -0.69777
      15     H     0.30472  0.30472  0.00000  0.39057
      16     H     0.29931  0.29931  0.00000  0.40138
      17     H     0.30246  0.30246  0.00000  0.39507
      18     H     0.31602  0.31602  0.00000  0.36797

   Total alpha = 32.00000, Total beta = 32.00000, Total charge =  1.00000

*** Psi4 exiting successfully. Buy a developer a beer!
