                               Psi4 1.1 release

  ==> Input File <==

--------------------------------------------------------------------------
set {
	reference rks
	basis 6-31G*
}

set_num_threads( 8 )
memory 2 gb

molecule MOL {
1 1

C	 -0.656959	 1.194247	 -1.116396
C	 0.017501	 2.429620	 -1.120939
C	 -0.612572	 3.559801	 -0.609646
C	 -1.905592	 3.464065	 -0.086043
C	 -2.576382	 2.237214	 -0.075895
C	 -1.960247	 1.101984	 -0.592955
C	 -0.000000	 -0.000000	 -1.658508
H	 1.004904	 2.517409	 -1.565423
H	 -0.100463	 4.516317	 -0.628444
H	 -2.391816	 4.347942	 0.315181
H	 -3.574372	 2.163952	 0.343846
H	 -2.468418	 0.143029	 -0.543924
N	 -0.712589	 -0.905950	 -2.322235
N	 1.307109	 -0.174792	 -1.485369
H	 1.822932	 -0.932498	 -1.917313
H	 1.815550	 0.423583	 -0.847624
H	 -1.377189	 -1.485970	 -1.827091
H	 -0.673431	 -1.006470	 -3.329771

	symmetry c1
}
set optking { dynamic_level = 1 }
set optking {
	frozen_dihedral = ("
		1 7 13 17
	")
}

ee,wfn = optimize('b3lyp-d3', return_wfn=True)
oeprop( wfn, 'DIPOLE', 'QUADRUPOLE', 'MULLIKEN_CHARGES')
f=open( 'psi4out.xyz', 'w' )
f.write( "18  " )
f.write( str(ee) + "\n" )
f.write( MOL.save_string_xyz() )
f.close()
--------------------------------------------------------------------------

    Molecular point group: c1
  Charge       = 1
  Multiplicity = 1
  Basis Set: 6-31G*
    Blend: 6-31G*
   => B3LYP Composite Functional <=
  Basis Set: (6-31G* AUX)
    Blend: CC-PVDZ-JKFIT
  @DF-RKS Final Energy:  -381.42729728498773
    Total Energy =                       -381.4272972849877306
    Molecular point group: c1
  Basis Set: 6-31G*
    Blend: 6-31G*
  Basis Set: (6-31G* AUX)
    Blend: CC-PVDZ-JKFIT
   => B3LYP Composite Functional <=
  Basis Set: 6-31G*
    Blend: 6-31G*
   => B3LYP Composite Functional <=
  Basis Set: (6-31G* AUX)
    Blend: CC-PVDZ-JKFIT
  @DF-RKS Final Energy:  -381.43441012148332
    Total Energy =                       -381.4344101214833245
  Basis Set: 6-31G*
    Blend: 6-31G*
  Basis Set: (6-31G* AUX)
  @DF-RKS Final Energy:  -381.43989845842924
    Total Energy =                       -381.4398984584291838
  @DF-RKS Final Energy:  -381.44533682339869
    Total Energy =                       -381.4453368233986907
  @DF-RKS Final Energy:  -381.44729587242045
    Total Energy =                       -381.4472958724203977
  @DF-RKS Final Energy:  -381.45232937306497
    Total Energy =                       -381.4523293730649698
  @DF-RKS Final Energy:  -381.44729587182729
    Total Energy =                       -381.4472958718272935
  @DF-RKS Final Energy:  -381.45349634990924
    Total Energy =                       -381.4534963499092441
  @DF-RKS Final Energy:  -381.45491202123236
    Total Energy =                       -381.4549120212323601
  @DF-RKS Final Energy:  -381.45605840794957
    Total Energy =                       -381.4560584079495129
  @DF-RKS Final Energy:  -381.45693819612706
    Total Energy =                       -381.4569381961270551
  @DF-RKS Final Energy:  -381.45744848790895
    Total Energy =                       -381.4574484879090051
  @DF-RKS Final Energy:  -381.45756147679901
    Total Energy =                       -381.4575614767990146
   => B3LYP Composite Functional <=
  Basis Set: (6-31G* AUX)
    Blend: CC-PVDZ-JKFIT
  @DF-RKS Final Energy:  -381.45757799180626
    Total Energy =                       -381.4575779918062608
  Basis Set: 6-31G*
    Blend: 6-31G*
  Basis Set: (6-31G* AUX)
    Blend: CC-PVDZ-JKFIT
   => B3LYP Composite Functional <=
  Charge       = 1
  Multiplicity = 1
  Basis Set: 6-31G*
    Blend: 6-31G*
   => B3LYP Composite Functional <=
  Basis Set: (6-31G* AUX)
    Blend: CC-PVDZ-JKFIT

    Orbital Energies (a.u.)
    -----------------------

    Doubly Occupied:

       1A    -14.577716     2A    -14.553803     3A    -10.496571
       4A    -10.372534     5A    -10.359285     6A    -10.355501
       7A    -10.347741     8A    -10.342591     9A    -10.340599
      10A     -1.181680    11A     -1.086862    12A     -1.015414
      13A     -0.928854    14A     -0.903438    15A     -0.842550
      16A     -0.778188    17A     -0.771764    18A     -0.736640
      19A     -0.725155    20A     -0.694887    21A     -0.668259
      22A     -0.626291    23A     -0.606334    24A     -0.581329
      25A     -0.580552    26A     -0.565428    27A     -0.517417
      28A     -0.507232    29A     -0.498595    30A     -0.478425
      31A     -0.414645    32A     -0.406993

  @DF-RKS Final Energy:  -381.45757882073593

   => Energetics <=

    Nuclear Repulsion Energy =            416.4232747577093505
    One-Electron Energy =               -1328.0945302997417912
    Two-Electron Energy =                 574.6209817563261595
    DFT Exchange-Correlation Energy =     -44.3955779250295919
    Empirical Dispersion Energy =          -0.0117271100000000
    PCM Polarization Energy =               0.0000000000000000
    EFP Energy =                            0.0000000000000000
    Total Energy =                       -381.4575788207358755
    Molecular point group: c1
  Basis Set: 6-31G*
    Blend: 6-31G*
  Basis Set: (6-31G* AUX)
    Blend: CC-PVDZ-JKFIT
   => B3LYP Composite Functional <=

  -Total Gradient:
     Atom            X                  Y                   Z
    ------   -----------------  -----------------  -----------------
       1       -0.003692503196     0.002296302611    -0.009369601123
       2        0.000013484775     0.000040649438     0.000025767372
       3       -0.000004361980    -0.000003550053    -0.000015917333
       4        0.000009004151    -0.000002280109    -0.000011262027
       5        0.000011497778    -0.000013500176    -0.000006161647
       6        0.000006266582     0.000023799618     0.000007339022
       7        0.009649146938    -0.005902631862     0.013626788690
       8       -0.000021537135    -0.000015065430     0.000005086713
       9       -0.000011090580    -0.000012868504     0.000009148277
      10        0.000004030607    -0.000003725160     0.000006023856
      11        0.000015301658    -0.000000231242    -0.000004532186
      12        0.000000782117    -0.000020155771     0.000015261987
      13       -0.018496239886     0.010834077909    -0.003019230237
      14        0.000121939846     0.000043801696     0.000073263308
      15       -0.000005046671     0.000007342141     0.000003833215
      16       -0.000031190420    -0.000072387629     0.000015484385
      17        0.012452319830    -0.007206490921    -0.001369344370
      18       -0.000023698425    -0.000004228462     0.000002813354

  **** Optimization is complete! (in 9 steps) ****
    Final optimized geometry and variables:
    Molecular point group: c1

    Geometry (in Angstrom), charge = 1, multiplicity = 1:

    C            0.106609623427    -0.161291186978    -0.036841184741
    C            0.885470120146     0.925054714540     0.419950677532
    C            0.261350096133     2.060742746888     0.917478577595
    C           -1.137000940742     2.121423116022     0.971704957296
    C           -1.913802095580     1.043272333425     0.535261604759
    C           -1.300977568152    -0.100865034736     0.037521390339
    C            0.739393159030    -1.347737775456    -0.589053305855
    H            1.970335458789     0.860820635846     0.430924771960
    H            0.857744005742     2.892410760898     1.278008926796
    H           -1.621396032296     3.012110787952     1.360360143746
    H           -2.996666465449     1.100151150067     0.575212684154
    H           -1.896185464972    -0.928013065271    -0.333518450777
    N            0.053599457540    -2.527570436428    -0.612788217398
    N            1.877406893452    -1.244768507678    -1.264623333453
    H            2.384676338443    -2.056340399941    -1.599541055177
    H            2.256054564018    -0.336168158318    -1.505894543422
    H           -0.110056661038    -2.975764061169     0.286264003905
    H            0.413119729326    -3.219142416630    -1.268478792807

  Mulliken Charges: (a.u.)
   Center  Symbol    Alpha    Beta     Spin     Total
       1     C     2.95079  2.95079  0.00000  0.09841
       2     C     3.08463  3.08463  0.00000 -0.16926
       3     C     3.06274  3.06274  0.00000 -0.12548
       4     C     3.04973  3.04973  0.00000 -0.09946
       5     C     3.06261  3.06261  0.00000 -0.12522
       6     C     3.07163  3.07163  0.00000 -0.14325
       7     C     2.75683  2.75683  0.00000  0.48633
       8     H     0.41547  0.41547  0.00000  0.16906
       9     H     0.40495  0.40495  0.00000  0.19011
      10     H     0.40259  0.40259  0.00000  0.19482
      11     H     0.40443  0.40443  0.00000  0.19114
      12     H     0.40417  0.40417  0.00000  0.19167
      13     N     3.85804  3.85804  0.00000 -0.71608
      14     N     3.84889  3.84889  0.00000 -0.69777
      15     H     0.30472  0.30472  0.00000  0.39057
      16     H     0.29931  0.29931  0.00000  0.40138
      17     H     0.30246  0.30246  0.00000  0.39507
      18     H     0.31602  0.31602  0.00000  0.36797

   Total alpha = 32.00000, Total beta = 32.00000, Total charge =  1.00000

*** Psi4 exiting successfully. Buy a developer a beer!
