                              Psi4 1.0.54 Driver

  ==> Input File <==

--------------------------------------------------------------------------
set_num_threads(1)
set_memory(3145728000)

set { reference rks }
set { basis 6-31G* }

molecule MOL {
    1 1
    noreorient
    nocom
    symmetry c1
    C    0.000000   0.000000  -0.177864
    C    0.036678   1.219374   0.524165
    C    0.031764   1.213119   1.915444
    C   -0.000000  -0.000000   2.610107
    C   -0.031764  -1.213119   1.915444
    C   -0.036677  -1.219374   0.524165
    C    0.000000  -0.000000  -1.644734
    H    0.018170   2.164705  -0.010853
    H    0.042402   2.152895   2.457886
    H   -0.000000  -0.000000   3.695756
    H   -0.042402  -2.152895   2.457886
    H   -0.018170  -2.164705  -0.010853
    N   -0.860283   0.767100  -2.308461
    N    0.860283  -0.767100  -2.308460
    H    0.963026  -0.734216  -3.315997
    H    1.398215  -1.466203  -1.813316
    H   -1.398215   1.466203  -1.813317
    H   -0.963026   0.734215  -3.315997
}

set optking { frozen_dihedral = (" 2 1 7 13 ") }

set optking { dynamic_level = 1
 geom_maxiter = 250
 print_trajectory_xyz_file = True }

energy, wfn = optimize('B3LYP-D3', return_wfn=True)

import os
os.chdir(os.environ['HTMD_PSI4_WORKDIR'])

oeprop(wfn, 'DIPOLE', 'QUADRUPOLE', 'MULLIKEN_CHARGES')

with open('psi4out.xyz', 'w') as f:
    f.write('18 ' )
    f.write('%.12f\n' % energy)
    f.write(MOL.save_string_xyz())
--------------------------------------------------------------------------

    Molecular point group: c1
  Charge       = 1
  Multiplicity = 1
  Basis Set: 6-31G*
   => B3LYP-D3 Composite Functional <=
  Basis Set:
  @DF-RKS Final Energy:  -381.46496451320559
    Total Energy =                       -381.4649645132055298
    Molecular point group: c1
  Basis Set: 6-31G*
  Basis Set:
   => B3LYP-D3 Composite Functional <=
  Basis Set: 6-31G*
   => B3LYP-D3 Composite Functional <=
  Basis Set:
  @DF-RKS Final Energy:  -381.46837330563295
    Total Energy =                       -381.4683733056330084
  Basis Set: 6-31G*
  Basis Set:
   => B3LYP-D3 Composite Functional <=
  Basis Set: 6-31G*
   => B3LYP-D3 Composite Functional <=
  Basis Set:
  @DF-RKS Final Energy:  -381.46947799483831
    Total Energy =                       -381.4694779948383712
  Basis Set: 6-31G*
  Basis Set:
  @DF-RKS Final Energy:  -381.46965221371676
    Total Energy =                       -381.4696522137167563
   => B3LYP-D3 Composite Functional <=
  Basis Set:
  @DF-RKS Final Energy:  -381.46966013373378
    Total Energy =                       -381.4696601337338393
  Basis Set: 6-31G*
  Basis Set:
   => B3LYP-D3 Composite Functional <=
  Basis Set: 6-31G*
   => B3LYP-D3 Composite Functional <=
  Basis Set:
  @DF-RKS Final Energy:  -381.46966155431926
    Total Energy =                       -381.4696615543192024
  Basis Set: 6-31G*
  Basis Set:
   => B3LYP-D3 Composite Functional <=
  Charge       = 1
  Multiplicity = 1
  Basis Set: 6-31G*
   => B3LYP-D3 Composite Functional <=
  Basis Set:

    Orbital Energies (a.u.)
    -----------------------

    Doubly Occupied:

       1A    -14.570082     2A    -14.570055     3A    -10.498155
       4A    -10.371587     5A    -10.354314     6A    -10.353911
       7A    -10.340478     8A    -10.338721     9A    -10.338618
      10A     -1.185301    11A     -1.093995    12A     -1.012844
      13A     -0.925378    14A     -0.900314    15A     -0.844997
      16A     -0.786185    17A     -0.771426    18A     -0.745496
      19A     -0.731112    20A     -0.689107    21A     -0.668679
      22A     -0.622611    23A     -0.619741    24A     -0.583254
      25A     -0.577372    26A     -0.571298    27A     -0.517964
      28A     -0.503060    29A     -0.496377    30A     -0.474433
      31A     -0.410011    32A     -0.403866

  @DF-RKS Final Energy:  -381.46966185868354

   => Energetics <=

    Nuclear Repulsion Energy =            416.8620124117856562
    One-Electron Energy =               -1328.9741837440606105
    Two-Electron Energy =                 575.0600053346487357
    DFT Exchange-Correlation Energy =     -44.4055136710572569
    Empirical Dispersion Energy =          -0.0119821900000000
    PCM Polarization Energy =               0.0000000000000000
    EFP Energy =                            0.0000000000000000
    Total Energy =                       -381.4696618586835370
    Molecular point group: c1
  Basis Set: 6-31G*
  Basis Set:
   => B3LYP-D3 Composite Functional <=

  -Total Gradient:
     Atom            X                  Y                   Z
    ------   -----------------  -----------------  -----------------
       1       -0.005341495396    -0.000845743786    -0.000195126022
       2        0.002972814007    -0.000117885227     0.000091006497
       3        0.000023598991     0.000004199674    -0.000006815712
       4        0.000005301421     0.000000312286    -0.000004977135
       5       -0.000024395622    -0.000006584223    -0.000005529609
       6        0.000006976195    -0.000009043894     0.000017410077
       7        0.004505402593     0.003296097920     0.000190403414
       8       -0.000005814578    -0.000007320329    -0.000004900380
       9       -0.000002780519    -0.000001902063     0.000001341060
      10       -0.000002370756     0.000000982832    -0.000000661945
      11        0.000004217489     0.000001563312     0.000002220058
      12       -0.000003410528     0.000003812074     0.000000034193
      13       -0.002128291461    -0.002349647724    -0.000063081477
      14       -0.000003658754     0.000035254158     0.000000337389
      15       -0.000008117162    -0.000012375682    -0.000016596834
      16        0.000013158941    -0.000013767998    -0.000002922651
      17       -0.000010966071     0.000008542224    -0.000001565108
      18        0.000002444117     0.000006707996    -0.000022180003

  **** Optimization is complete! (in 7 steps) ****
    Final optimized geometry and variables:
    Molecular point group: c1

    Geometry (in Angstrom), charge = 1, multiplicity = 1:

    C           -0.031021867275     0.002798022430    -0.178122376427
    C            0.004908557771     1.221792381046     0.521591711931
    C            0.020461640552     1.211416745104     1.913714218535
    C           -0.003048331372    -0.003750242945     2.604555008836
    C           -0.031378224635    -1.215875225713     1.907672132675
    C           -0.030401674930    -1.220179661895     0.515741599195
    C            0.006352199190     0.009648503605    -1.647343582183
    H            0.051026218121     2.163642804283    -0.018064418597
    H            0.060298487126     2.148964290512     2.458741640455
    H            0.003953734748    -0.006622618527     3.690182724459
    H           -0.056962705861    -2.156214068856     2.448761782782
    H           -0.073551487697    -2.159890515609    -0.027773318564
    N           -0.828656019179     0.793702000626    -2.319787758049
    N            0.844862796658    -0.797948633050    -2.286586232367
    H            0.848409378970    -0.908246194586    -3.294354629267
    H            1.549646816463    -1.300912574779    -1.762713280649
    H           -1.542009245953     1.307960214588    -1.818927151403
    H           -0.792889272698     0.909713773766    -3.326287071362

  Mulliken Charges: (a.u.)
   Center  Symbol    Alpha    Beta     Spin     Total
       1     C     2.96851  2.96851  0.00000  0.06298
       2     C     3.07822  3.07822  0.00000 -0.15644
       3     C     3.06205  3.06205  0.00000 -0.12409
       4     C     3.05202  3.05202  0.00000 -0.10403
       5     C     3.06302  3.06302  0.00000 -0.12604
       6     C     3.07941  3.07941  0.00000 -0.15881
       7     C     2.73030  2.73030  0.00000  0.53940
       8     H     0.41366  0.41366  0.00000  0.17267
       9     H     0.40588  0.40588  0.00000  0.18825
      10     H     0.40461  0.40461  0.00000  0.19078
      11     H     0.40587  0.40587  0.00000  0.18826
      12     H     0.41345  0.41345  0.00000  0.17309
      13     N     3.85679  3.85679  0.00000 -0.71358
      14     N     3.85820  3.85820  0.00000 -0.71639
      15     H     0.30550  0.30550  0.00000  0.38901
      16     H     0.29863  0.29863  0.00000  0.40275
      17     H     0.29826  0.29826  0.00000  0.40348
      18     H     0.30564  0.30564  0.00000  0.38873

   Total alpha = 32.00000, Total beta = 32.00000, Total charge =  1.00000

*** Psi4 exiting successfully. Buy a developer a beer!
