                               Psi4 1.1 release

  ==> Input File <==

--------------------------------------------------------------------------
set {
	reference rks
	basis 6-31G*
}

set_num_threads( 8 )
memory 2 gb

molecule MOL {
1 1

C	 -0.601654	 1.291040	 -1.307891
C	 0.179918	 2.461202	 -1.338421
C	 -0.397528	 3.683491	 -1.009352
C	 -1.745173	 3.744828	 -0.641498
C	 -2.522970	 2.583372	 -0.605726
C	 -1.959117	 1.356639	 -0.941758
C	 -0.000000	 -0.000000	 -1.658508
H	 1.215487	 2.424541	 -1.664749
H	 0.199370	 4.588835	 -1.049333
H	 -2.190465	 4.700343	 -0.382001
H	 -3.564846	 2.632871	 -0.306431
H	 -2.555798	 0.451526	 -0.871193
N	 -0.712589	 -0.905950	 -2.322235
N	 1.257060	 -0.262387	 -1.312074
H	 1.746772	 -1.098175	 -1.609406
H	 1.742323	 0.352500	 -0.671982
H	 -1.377189	 -1.485970	 -1.827091
H	 -0.673431	 -1.006470	 -3.329771

	symmetry c1
}
set optking { dynamic_level = 1 }
set optking {
	frozen_dihedral = ("
		1 7 13 17
	")
}

ee,wfn = optimize('b3lyp-d3', return_wfn=True)
oeprop( wfn, 'DIPOLE', 'QUADRUPOLE', 'MULLIKEN_CHARGES')
f=open( 'psi4out.xyz', 'w' )
f.write( "18  " )
f.write( str(ee) + "\n" )
f.write( MOL.save_string_xyz() )
f.close()
--------------------------------------------------------------------------

    Molecular point group: c1
  Charge       = 1
  Multiplicity = 1
  Basis Set: 6-31G*
    Blend: 6-31G*
   => B3LYP Composite Functional <=
  Basis Set: (6-31G* AUX)
    Blend: CC-PVDZ-JKFIT
  @DF-RKS Final Energy:  -381.42474855192074
    Total Energy =                       -381.4247485519207999
    Molecular point group: c1
  Basis Set: 6-31G*
    Blend: 6-31G*
  Basis Set: (6-31G* AUX)
    Blend: CC-PVDZ-JKFIT
   => B3LYP Composite Functional <=
  Basis Set: 6-31G*
    Blend: 6-31G*
   => B3LYP Composite Functional <=
  Basis Set: (6-31G* AUX)
    Blend: CC-PVDZ-JKFIT
  @DF-RKS Final Energy:  -381.43086436377155
    Total Energy =                       -381.4308643637715477
  Basis Set: 6-31G*
    Blend: 6-31G*
  Basis Set: (6-31G* AUX)
  @DF-RKS Final Energy:  -381.43343797571896
    Total Energy =                       -381.4334379757189595
  @DF-RKS Final Energy:  -381.43470185301123
    Total Energy =                       -381.4347018530112905
  @DF-RKS Final Energy:  -381.43558743864770
    Total Energy =                       -381.4355874386477581
  @DF-RKS Final Energy:  -381.43644516202613
    Total Energy =                       -381.4364451620261320
  @DF-RKS Final Energy:  -381.43328424591368
    Total Energy =                       -381.4332842459136828
  @DF-RKS Final Energy:  -381.43644516129939
    Total Energy =                       -381.4364451612993889
  @DF-RKS Final Energy:  -381.43781757495668
    Total Energy =                       -381.4378175749567390
  @DF-RKS Final Energy:  -381.43954283786638
    Total Energy =                       -381.4395428378663837
  @DF-RKS Final Energy:  -381.44037644920326
    Total Energy =                       -381.4403764492031996
  @DF-RKS Final Energy:  -381.44211915443384
    Total Energy =                       -381.4421191544338399
  @DF-RKS Final Energy:  -381.44635493259239
    Total Energy =                       -381.4463549325923850
  @DF-RKS Final Energy:  -381.44893142727261
    Total Energy =                       -381.4489314272726688
  @DF-RKS Final Energy:  -381.45077043701940
    Total Energy =                       -381.4507704370193437
  @DF-RKS Final Energy:  -381.45220362840075
    Total Energy =                       -381.4522036284006958
  @DF-RKS Final Energy:  -381.45287012918914
    Total Energy =                       -381.4528701291891366
  @DF-RKS Final Energy:  -381.45295742592731
    Total Energy =                       -381.4529574259273090
  @DF-RKS Final Energy:  -381.45299150436421
    Total Energy =                       -381.4529915043642063
   => B3LYP Composite Functional <=
  Basis Set: (6-31G* AUX)
    Blend: CC-PVDZ-JKFIT
  @DF-RKS Final Energy:  -381.45300603071456
    Total Energy =                       -381.4530060307145618
  Basis Set: 6-31G*
    Blend: 6-31G*
  Basis Set: (6-31G* AUX)
    Blend: CC-PVDZ-JKFIT
   => B3LYP Composite Functional <=
  Charge       = 1
  Multiplicity = 1
  Basis Set: 6-31G*
    Blend: 6-31G*
   => B3LYP Composite Functional <=
  Basis Set: (6-31G* AUX)
    Blend: CC-PVDZ-JKFIT

    Orbital Energies (a.u.)
    -----------------------

    Doubly Occupied:

       1A    -14.579722     2A    -14.548911     3A    -10.496639
       4A    -10.373026     5A    -10.360436     6A    -10.355991
       7A    -10.349263     8A    -10.343560     9A    -10.341099
      10A     -1.180881    11A     -1.084490    12A     -1.016053
      13A     -0.929598    14A     -0.904182    15A     -0.842326
      16A     -0.776869    17A     -0.771741    18A     -0.736626
      19A     -0.722486    20A     -0.694571    21A     -0.667938
      22A     -0.626896    23A     -0.605437    24A     -0.581471
      25A     -0.580611    26A     -0.563207    27A     -0.517268
      28A     -0.508116    29A     -0.499152    30A     -0.477073
      31A     -0.415625    32A     -0.407718

  @DF-RKS Final Energy:  -381.45300649516821

   => Energetics <=

    Nuclear Repulsion Energy =            416.2379143643535713
    One-Electron Energy =               -1327.7252026460982961
    Two-Electron Energy =                 574.4387329557395105
    DFT Exchange-Correlation Energy =     -44.3927865091629954
    Empirical Dispersion Energy =          -0.0116646600000000
    PCM Polarization Energy =               0.0000000000000000
    EFP Energy =                            0.0000000000000000
    Total Energy =                       -381.4530064951681538
    Molecular point group: c1
  Basis Set: 6-31G*
    Blend: 6-31G*
  Basis Set: (6-31G* AUX)
    Blend: CC-PVDZ-JKFIT
   => B3LYP Composite Functional <=

  -Total Gradient:
     Atom            X                  Y                   Z
    ------   -----------------  -----------------  -----------------
       1       -0.002278597794     0.002063475522    -0.011116989180
       2        0.000013595131     0.000032547752     0.000051617620
       3       -0.000020273794     0.000010505286    -0.000020831755
       4        0.000020893089    -0.000004815058     0.000009751452
       5        0.000014171529    -0.000012771467    -0.000001094089
       6       -0.000032624271     0.000029369544     0.000022853995
       7        0.007644179060    -0.006165966506     0.016407147719
       8       -0.000012350169    -0.000017648278    -0.000021612011
       9       -0.000006623990    -0.000003759703     0.000001422252
      10        0.000002079679    -0.000003490334     0.000001299836
      11        0.000012594170     0.000001181643    -0.000012018131
      12        0.000011622928    -0.000004250387     0.000009080928
      13       -0.017929660474     0.013228093757    -0.003779266265
      14       -0.000074917351     0.000009139912    -0.000035683585
      15       -0.000020941218     0.000005137936     0.000004401634
      16       -0.000035078867    -0.000017973871     0.000016903391
      17        0.012718679214    -0.009173116678    -0.001550567730
      18       -0.000025956299     0.000004948282     0.000004726109

  **** Optimization is complete! (in 14 steps) ****
    Final optimized geometry and variables:
    Molecular point group: c1

    Geometry (in Angstrom), charge = 1, multiplicity = 1:

    C            0.096009372715    -0.173558815923    -0.002472025361
    C            0.919366504140     0.886311475732     0.442345890273
    C            0.356482083120     2.117471687732     0.745797098496
    C           -1.026990222127     2.302133683925     0.620286470821
    C           -1.850482381631     1.253085595937     0.198886510009
    C           -1.299378615919     0.014173231039    -0.106274147808
    C            0.665817245534    -1.459233404473    -0.359845559561
    H            1.984211865526     0.732176642452     0.596215177215
    H            0.985383410502     2.929528814200     1.095615972784
    H           -1.463392957999     3.267621252936     0.857916705888
    H           -2.920275223756     1.405667091987     0.100611350025
    H           -1.924534302552    -0.796379741497    -0.463479445940
    N           -0.142231582224    -2.570083591613    -0.401991855486
    N            1.885234069616    -1.529091632503    -0.877988572786
    H            2.339008731333    -2.414829973434    -1.072869674624
    H            2.396244801053    -0.688730672454    -1.124503731550
    H           -0.350968051670    -3.004058553485     0.496134138267
    H            0.207236974123    -3.299917903745    -1.022469964896

  Mulliken Charges: (a.u.)
   Center  Symbol    Alpha    Beta     Spin     Total
       1     C     2.94826  2.94826  0.00000  0.10348
       2     C     3.08467  3.08467  0.00000 -0.16934
       3     C     3.06271  3.06271  0.00000 -0.12542
       4     C     3.04926  3.04926  0.00000 -0.09853
       5     C     3.06255  3.06255  0.00000 -0.12509
       6     C     3.06991  3.06991  0.00000 -0.13982
       7     C     2.76407  2.76407  0.00000  0.47187
       8     H     0.41572  0.41572  0.00000  0.16855
       9     H     0.40469  0.40469  0.00000  0.19063
      10     H     0.40216  0.40216  0.00000  0.19568
      11     H     0.40408  0.40408  0.00000  0.19183
      12     H     0.40212  0.40212  0.00000  0.19576
      13     N     3.85900  3.85900  0.00000 -0.71800
      14     N     3.84579  3.84579  0.00000 -0.69158
      15     H     0.30446  0.30446  0.00000  0.39109
      16     H     0.29940  0.29940  0.00000  0.40120
      17     H     0.30330  0.30330  0.00000  0.39341
      18     H     0.31785  0.31785  0.00000  0.36430

   Total alpha = 32.00000, Total beta = 32.00000, Total charge =  1.00000

*** Psi4 exiting successfully. Buy a developer a beer!
