                               Psi4 1.1 release

  ==> Input File <==

--------------------------------------------------------------------------
set_num_threads(1)
set_memory(3145728000)

set { reference rks }
set { basis 6-31G* }

molecule MOL {
    1 1
    noreorient
    nocom
    symmetry c1
    C    0.000000   0.000000  -0.177864
    C    0.036678   1.219374   0.524165
    C    0.031764   1.213119   1.915444
    C   -0.000000  -0.000000   2.610107
    C   -0.031764  -1.213119   1.915444
    C   -0.036677  -1.219374   0.524165
    C    0.000000  -0.000000  -1.644734
    H    0.018170   2.164705  -0.010853
    H    0.042402   2.152895   2.457886
    H   -0.000000  -0.000000   3.695756
    H   -0.042402  -2.152895   2.457886
    H   -0.018170  -2.164705  -0.010853
    N   -0.712590  -0.905950  -2.308460
    N    0.712590   0.905950  -2.308461
    H    0.673432   1.006469  -3.315997
    H    1.377190   1.485970  -1.813317
    H   -0.350740  -1.842997  -2.428010
    H   -1.647895  -0.725122  -2.653818
}

set optking { frozen_dihedral = (" 1 7 13 17 ") }

set optking { dynamic_level = 1
 geom_maxiter = 250
 print_trajectory_xyz_file = True }

energy, wfn = optimize('B3LYP-D3', return_wfn=True)

import os
os.chdir(os.environ['HTMD_PSI4_WORKDIR'])

oeprop(wfn, 'DIPOLE', 'QUADRUPOLE', 'MULLIKEN_CHARGES')

with open('psi4out.xyz', 'w') as f:
    f.write('18 ' )
    f.write('%.12f\n' % energy)
    f.write(MOL.save_string_xyz())
--------------------------------------------------------------------------

    Molecular point group: c1
  Charge       = 1
  Multiplicity = 1
  Basis Set: 6-31G*
    Blend: 6-31G*
   => B3LYP Composite Functional <=
  Basis Set: (6-31G* AUX)
    Blend: CC-PVDZ-JKFIT
  @DF-RKS Final Energy:  -381.42474853137333
    Total Energy =                       -381.4247485313733819
    Molecular point group: c1
  Basis Set: 6-31G*
    Blend: 6-31G*
  Basis Set: (6-31G* AUX)
    Blend: CC-PVDZ-JKFIT
   => B3LYP Composite Functional <=
  Basis Set: 6-31G*
    Blend: 6-31G*
   => B3LYP Composite Functional <=
  Basis Set: (6-31G* AUX)
    Blend: CC-PVDZ-JKFIT
  @DF-RKS Final Energy:  -381.43086435153816
    Total Energy =                       -381.4308643515381050
  Basis Set: 6-31G*
    Blend: 6-31G*
  Basis Set: (6-31G* AUX)
  @DF-RKS Final Energy:  -381.43343796843999
    Total Energy =                       -381.4334379684399892
  @DF-RKS Final Energy:  -381.43470189085053
    Total Energy =                       -381.4347018908504765
  @DF-RKS Final Energy:  -381.43558749466376
    Total Energy =                       -381.4355874946637641
  @DF-RKS Final Energy:  -381.43644544090250
    Total Energy =                       -381.4364454409025029
  @DF-RKS Final Energy:  -381.39583037636982
    Total Energy =                       -381.3958303763698723
  @DF-RKS Final Energy:  -381.43644544090199
    Total Energy =                       -381.4364454409020482
  @DF-RKS Final Energy:  -381.43781805675928
    Total Energy =                       -381.4378180567592835
  @DF-RKS Final Energy:  -381.43954328413889
    Total Energy =                       -381.4395432841388924
  @DF-RKS Final Energy:  -381.44038240314291
    Total Energy =                       -381.4403824031429053
  @DF-RKS Final Energy:  -381.44211926276580
    Total Energy =                       -381.4421192627657433
  @DF-RKS Final Energy:  -381.44635695990547
    Total Energy =                       -381.4463569599055290
  @DF-RKS Final Energy:  -381.44893401312277
    Total Energy =                       -381.4489340131227095
  @DF-RKS Final Energy:  -381.45077254651824
    Total Energy =                       -381.4507725465182943
  @DF-RKS Final Energy:  -381.45220442826428
    Total Energy =                       -381.4522044282643378
  @DF-RKS Final Energy:  -381.45287209719783
    Total Energy =                       -381.4528720971978260
  @DF-RKS Final Energy:  -381.45296546441404
    Total Energy =                       -381.4529654644140351
  @DF-RKS Final Energy:  -381.45299055081296
    Total Energy =                       -381.4529905508129559
  @DF-RKS Final Energy:  -381.45300607061404
    Total Energy =                       -381.4530060706140375
  @DF-RKS Final Energy:  -381.45211347086422
    Total Energy =                       -381.4521134708641625
   => B3LYP Composite Functional <=
  Basis Set: (6-31G* AUX)
    Blend: CC-PVDZ-JKFIT
  @DF-RKS Final Energy:  -381.45278257658509
    Total Energy =                       -381.4527825765850935
  Basis Set: 6-31G*
    Blend: 6-31G*
  Basis Set: (6-31G* AUX)
    Blend: CC-PVDZ-JKFIT
   => B3LYP Composite Functional <=
  Charge       = 1
  Multiplicity = 1
  Basis Set: 6-31G*
    Blend: 6-31G*
   => B3LYP Composite Functional <=
  Basis Set: (6-31G* AUX)
    Blend: CC-PVDZ-JKFIT

    Orbital Energies (a.u.)
    -----------------------

    Doubly Occupied:

       1A    -14.579681     2A    -14.548882     3A    -10.496599
       4A    -10.373029     5A    -10.360448     6A    -10.356012
       7A    -10.349289     8A    -10.343562     9A    -10.341106
      10A     -1.180940    11A     -1.084478    12A     -1.016069
      13A     -0.929652    14A     -0.904191    15A     -0.842340
      16A     -0.776893    17A     -0.771764    18A     -0.736638
      19A     -0.722496    20A     -0.694595    21A     -0.667974
      22A     -0.626944    23A     -0.605427    24A     -0.581499
      25A     -0.580599    26A     -0.563217    27A     -0.517261
      28A     -0.508155    29A     -0.499140    30A     -0.477095
      31A     -0.415645    32A     -0.407731

  @DF-RKS Final Energy:  -381.45300607061455

   => Energetics <=

    Nuclear Repulsion Energy =            416.2439776867755654
    One-Electron Energy =               -1327.7363914902880424
    Two-Electron Energy =                 574.4441413311269571
    DFT Exchange-Correlation Energy =     -44.3930692982290580
    Empirical Dispersion Energy =          -0.0116643000000000
    PCM Polarization Energy =               0.0000000000000000
    EFP Energy =                            0.0000000000000000
    Total Energy =                       -381.4530060706146060
    Molecular point group: c1
  Basis Set: 6-31G*
    Blend: 6-31G*
  Basis Set: (6-31G* AUX)
    Blend: CC-PVDZ-JKFIT
   => B3LYP Composite Functional <=

  -Total Gradient:
     Atom            X                  Y                   Z
    ------   -----------------  -----------------  -----------------
       1       -0.011437595360     0.001047899431    -0.000178892088
       2       -0.000016579779     0.000064552634     0.000098041138
       3        0.000027601428    -0.000023751088     0.000002620243
       4       -0.000000729787     0.000011318218     0.000003968940
       5       -0.000013172467     0.000017915264    -0.000035131703
       6       -0.000054730304    -0.000011693265     0.000122662982
       7        0.018601011368     0.000718358934    -0.004445922499
       8       -0.000023325629    -0.000030013457     0.000007226217
       9       -0.000004680097    -0.000021076591     0.000001776560
      10        0.000007596648     0.000008641558    -0.000003769718
      11        0.000025487602     0.000016792433    -0.000016663593
      12        0.000028502759     0.000020542383    -0.000008414496
      13       -0.010445102971    -0.008696421511     0.017887427114
      14        0.000004503876    -0.000078604434    -0.000001498807
      15       -0.000029715778    -0.000045892802     0.000067124625
      16       -0.000016699626    -0.000155889424    -0.000045854922
      17        0.003288135601     0.007162899093    -0.013636867186
      18        0.000053821913    -0.000012141197     0.000162431559

  **** Optimization is complete! (in 1 steps) ****
    Final optimized geometry and variables:
    Molecular point group: c1

    Geometry (in Angstrom), charge = 1, multiplicity = 1:

    C            0.043478684779    -0.017534667133    -0.151106849038
    C            0.558212715627     1.096869782873     0.550682654060
    C            0.532418353214     1.111769811085     1.937663830447
    C            0.005248408361     0.018136130245     2.637578741449
    C           -0.489255979834    -1.095614327107     1.951129756853
    C           -0.467089549423    -1.124091770729     0.561770114109
    C            0.027995025755    -0.041602695639    -1.601508820390
    H            1.020109723447     1.922246558723     0.015270334191
    H            0.935235878873     1.962008795235     2.478148612953
    H           -0.013844441734     0.034318900559     3.723144078352
    H           -0.898890206728    -1.936827732016     2.500580138824
    H           -0.875792215305    -1.969123250528     0.019315406085
    N           -0.093299498353    -1.242833544689    -2.258012398913
    N           -0.117008040700     1.084626780464    -2.287638319409
    H           -0.062937734187     1.110503124046    -3.299904918743
    H           -0.320088855439     1.959528403223    -1.817361147130
    H            0.759725883502    -1.794512378868    -2.339309628683
    H           -0.492230151854    -1.153547919745    -3.191955585017

  Mulliken Charges: (a.u.)
   Center  Symbol    Alpha    Beta     Spin     Total
       1     C     2.94822  2.94822  0.00000  0.10355
       2     C     3.08465  3.08465  0.00000 -0.16930
       3     C     3.06270  3.06270  0.00000 -0.12540
       4     C     3.04926  3.04926  0.00000 -0.09852
       5     C     3.06254  3.06254  0.00000 -0.12507
       6     C     3.06992  3.06992  0.00000 -0.13985
       7     C     2.76413  2.76413  0.00000  0.47173
       8     H     0.41570  0.41570  0.00000  0.16859
       9     H     0.40468  0.40468  0.00000  0.19064
      10     H     0.40215  0.40215  0.00000  0.19570
      11     H     0.40408  0.40408  0.00000  0.19183
      12     H     0.40212  0.40212  0.00000  0.19575
      13     N     3.85897  3.85897  0.00000 -0.71794
      14     N     3.84580  3.84580  0.00000 -0.69160
      15     H     0.30447  0.30447  0.00000  0.39106
      16     H     0.29941  0.29941  0.00000  0.40117
      17     H     0.30331  0.30331  0.00000  0.39337
      18     H     0.31786  0.31786  0.00000  0.36428

   Total alpha = 32.00000, Total beta = 32.00000, Total charge =  1.00000

*** Psi4 exiting successfully. Buy a developer a beer!
