                               Psi4 1.1 release

  ==> Input File <==

--------------------------------------------------------------------------
set {
	reference rks
	basis 6-31G*
}

set_num_threads( 8 )
memory 2 gb

molecule MOL {
1 1

C	 -0.000000	 -0.000000	 -0.191639
C	 -1.219315	 -0.038588	 0.510391
C	 -1.212770	 -0.043106	 1.901670
C	 -0.000000	 0.000000	 2.596333
C	 1.212770	 0.043106	 1.901670
C	 1.219315	 0.038587	 0.510391
C	 -0.000000	 -0.000000	 -1.658508
H	 -2.161706	 -0.115355	 -0.024627
H	 -2.151412	 -0.090441	 2.444112
H	 -0.000000	 0.000000	 3.681982
H	 2.151412	 0.090442	 2.444112
H	 2.161706	 0.115355	 -0.024627
N	 -0.712589	 -0.905950	 -2.322235
N	 0.712590	 0.905950	 -2.322235
H	 0.673432	 1.006470	 -3.329771
H	 1.377190	 1.485970	 -1.827091
H	 -1.377189	 -1.485970	 -1.827091
H	 -0.673431	 -1.006470	 -3.329771

	symmetry c1
}
set optking { dynamic_level = 1 }
set optking {
	frozen_dihedral = ("
		2 1 7 13
	")
}

ee,wfn = optimize('b3lyp-d3', return_wfn=True)
oeprop( wfn, 'DIPOLE', 'QUADRUPOLE', 'MULLIKEN_CHARGES')
f=open( 'psi4out.xyz', 'w' )
f.write( "18  " )
f.write( str(ee) + "\n" )
f.write( MOL.save_string_xyz() )
f.close()
--------------------------------------------------------------------------

    Molecular point group: c1
  Charge       = 1
  Multiplicity = 1
  Basis Set: 6-31G*
    Blend: 6-31G*
   => B3LYP Composite Functional <=
  Basis Set: (6-31G* AUX)
    Blend: CC-PVDZ-JKFIT
  @DF-RKS Final Energy:  -381.46496450385388
    Total Energy =                       -381.4649645038538779
    Molecular point group: c1
  Basis Set: 6-31G*
    Blend: 6-31G*
  Basis Set: (6-31G* AUX)
    Blend: CC-PVDZ-JKFIT
   => B3LYP Composite Functional <=
  Basis Set: 6-31G*
    Blend: 6-31G*
   => B3LYP Composite Functional <=
  Basis Set: (6-31G* AUX)
    Blend: CC-PVDZ-JKFIT
  @DF-RKS Final Energy:  -381.46837330945061
    Total Energy =                       -381.4683733094506124
  Basis Set: 6-31G*
    Blend: 6-31G*
  Basis Set: (6-31G* AUX)
  @DF-RKS Final Energy:  -381.46947800486174
    Total Energy =                       -381.4694780048617417
  @DF-RKS Final Energy:  -381.46965222174475
    Total Energy =                       -381.4696522217446955
  @DF-RKS Final Energy:  -381.46966014154293
    Total Energy =                       -381.4696601415429882
   => B3LYP Composite Functional <=
  Basis Set: (6-31G* AUX)
    Blend: CC-PVDZ-JKFIT
  @DF-RKS Final Energy:  -381.46966156210931
    Total Energy =                       -381.4696615621093656
  Basis Set: 6-31G*
    Blend: 6-31G*
  Basis Set: (6-31G* AUX)
    Blend: CC-PVDZ-JKFIT
   => B3LYP Composite Functional <=
  Charge       = 1
  Multiplicity = 1
  Basis Set: 6-31G*
    Blend: 6-31G*
   => B3LYP Composite Functional <=
  Basis Set: (6-31G* AUX)
    Blend: CC-PVDZ-JKFIT

    Orbital Energies (a.u.)
    -----------------------

    Doubly Occupied:

       1A    -14.570082     2A    -14.570055     3A    -10.498155
       4A    -10.371588     5A    -10.354314     6A    -10.353911
       7A    -10.340479     8A    -10.338721     9A    -10.338618
      10A     -1.185301    11A     -1.093995    12A     -1.012844
      13A     -0.925378    14A     -0.900314    15A     -0.844997
      16A     -0.786185    17A     -0.771426    18A     -0.745496
      19A     -0.731112    20A     -0.689107    21A     -0.668679
      22A     -0.622611    23A     -0.619741    24A     -0.583254
      25A     -0.577372    26A     -0.571298    27A     -0.517964
      28A     -0.503060    29A     -0.496377    30A     -0.474433
      31A     -0.410011    32A     -0.403866

  @DF-RKS Final Energy:  -381.46966186690395

   => Energetics <=

    Nuclear Repulsion Energy =            416.8619821298329384
    One-Electron Energy =               -1328.9741244952399484
    Two-Electron Energy =                 575.0599756677518144
    DFT Exchange-Correlation Energy =     -44.4055129792487975
    Empirical Dispersion Energy =          -0.0119821900000000
    PCM Polarization Energy =               0.0000000000000000
    EFP Energy =                            0.0000000000000000
    Total Energy =                       -381.4696618669039481
    Molecular point group: c1
  Basis Set: 6-31G*
    Blend: 6-31G*
  Basis Set: (6-31G* AUX)
    Blend: CC-PVDZ-JKFIT
   => B3LYP Composite Functional <=

  -Total Gradient:
     Atom            X                  Y                   Z
    ------   -----------------  -----------------  -----------------
       1        0.001173376246    -0.005279157211    -0.000195475019
       2       -0.000065659063     0.002974408557     0.000090993103
       3       -0.000005705547     0.000023291328    -0.000006738784
       4       -0.000000602357     0.000005270129    -0.000004948237
       5        0.000008114899    -0.000023947098    -0.000005496083
       6        0.000008651998     0.000007538611     0.000017486788
       7       -0.003567499091     0.004293570026     0.000190573834
       8        0.000007527786    -0.000005348113    -0.000004973374
       9        0.000001974168    -0.000002659390     0.000001398156
      10       -0.000000838992    -0.000002425220    -0.000000550716
      11       -0.000001742623     0.000004114848     0.000002269715
      12       -0.000003462384    -0.000003638568    -0.000000034975
      13        0.002476388370    -0.001979351670    -0.000063101794
      14       -0.000034967214    -0.000005822825     0.000000319879
      15        0.000012864360    -0.000007335585    -0.000016668232
      16        0.000012969040     0.000014050669    -0.000002875623
      17       -0.000007903162    -0.000011552348    -0.000001510533
      18       -0.000006862150     0.000002020844    -0.000022272453

  **** Optimization is complete! (in 7 steps) ****
    Final optimized geometry and variables:
    Molecular point group: c1

    Geometry (in Angstrom), charge = 1, multiplicity = 1:

    C           -0.001056089636    -0.027056453461    -0.190403576435
    C           -1.219946747749    -0.066360722164     0.509310197838
    C           -1.210550662227    -0.050192393757     1.901432798035
    C            0.003753246148     0.001277662347     2.592274032804
    C            1.215318828635     0.047744425230     1.895391577479
    C            1.219555632548     0.048979556078     0.503460987573
    C           -0.010197464980     0.009818175378    -1.659624881492
    H           -2.162848519730    -0.078411488419    -0.030346391095
    H           -2.148770873480    -0.068242880529     2.446459836823
    H            0.006187799083     0.008447430812     3.677901806161
    H            2.155445552614     0.080196206405     2.436481670205
    H            2.160139391732     0.063856691537    -0.040053460681
    N           -0.741268941153    -0.871951459486    -2.332065907500
    N            0.744157148943     0.896530238215    -2.298870820463
    H            0.854026680675     0.906867346253    -3.306639268182
    H            1.202703873201     1.630989986610    -1.775000566597
    H           -1.210560467140    -1.615656498045    -1.831202470575
    H           -0.859265118482    -0.843410529430    -3.338565470328

  Mulliken Charges: (a.u.)
   Center  Symbol    Alpha    Beta     Spin     Total
       1     C     2.96851  2.96851  0.00000  0.06298
       2     C     3.07822  3.07822  0.00000 -0.15644
       3     C     3.06205  3.06205  0.00000 -0.12409
       4     C     3.05202  3.05202  0.00000 -0.10403
       5     C     3.06302  3.06302  0.00000 -0.12604
       6     C     3.07941  3.07941  0.00000 -0.15881
       7     C     2.73030  2.73030  0.00000  0.53940
       8     H     0.41366  0.41366  0.00000  0.17267
       9     H     0.40588  0.40588  0.00000  0.18825
      10     H     0.40461  0.40461  0.00000  0.19078
      11     H     0.40587  0.40587  0.00000  0.18826
      12     H     0.41345  0.41345  0.00000  0.17309
      13     N     3.85679  3.85679  0.00000 -0.71358
      14     N     3.85820  3.85820  0.00000 -0.71639
      15     H     0.30550  0.30550  0.00000  0.38901
      16     H     0.29863  0.29863  0.00000  0.40275
      17     H     0.29826  0.29826  0.00000  0.40348
      18     H     0.30564  0.30564  0.00000  0.38873

   Total alpha = 32.00000, Total beta = 32.00000, Total charge =  1.00000

*** Psi4 exiting successfully. Buy a developer a beer!
