                               Psi4 1.1 release

  ==> Input File <==

--------------------------------------------------------------------------
set_num_threads(1)
set_memory(3145728000)

set { reference rks }
set { basis 6-31G* }

molecule MOL {
    1 1
    noreorient
    nocom
    symmetry c1
    C    0.000000   0.000000  -0.177864
    C    0.036678   1.219374   0.524165
    C    0.031764   1.213119   1.915444
    C   -0.000000  -0.000000   2.610107
    C   -0.031764  -1.213119   1.915444
    C   -0.036677  -1.219374   0.524165
    C    0.000000  -0.000000  -1.644734
    H    0.018170   2.164705  -0.010853
    H    0.042402   2.152895   2.457886
    H   -0.000000  -0.000000   3.695756
    H   -0.042402  -2.152895   2.457886
    H   -0.018170  -2.164705  -0.010853
    N   -0.712590  -0.905950  -2.308460
    N    0.712590   0.905950  -2.308461
    H    0.673432   1.006469  -3.315997
    H    1.377190   1.485970  -1.813317
    H   -1.714927  -0.951696  -2.179969
    H   -0.307543  -1.525319  -3.000621
}

set optking { frozen_dihedral = (" 1 7 13 17 ") }

set optking { dynamic_level = 1
 geom_maxiter = 250
 print_trajectory_xyz_file = True }

energy, wfn = optimize('B3LYP-D3', return_wfn=True)

import os
os.chdir(os.environ['HTMD_PSI4_WORKDIR'])

oeprop(wfn, 'DIPOLE', 'QUADRUPOLE', 'MULLIKEN_CHARGES')

with open('psi4out.xyz', 'w') as f:
    f.write('18 ' )
    f.write('%.12f\n' % energy)
    f.write(MOL.save_string_xyz())
--------------------------------------------------------------------------

    Molecular point group: c1
  Charge       = 1
  Multiplicity = 1
  Basis Set: 6-31G*
    Blend: 6-31G*
   => B3LYP Composite Functional <=
  Basis Set: (6-31G* AUX)
    Blend: CC-PVDZ-JKFIT
  @DF-RKS Final Energy:  -381.44732969513348
    Total Energy =                       -381.4473296951334760
    Molecular point group: c1
  Basis Set: 6-31G*
    Blend: 6-31G*
  Basis Set: (6-31G* AUX)
    Blend: CC-PVDZ-JKFIT
   => B3LYP Composite Functional <=
  Basis Set: 6-31G*
    Blend: 6-31G*
   => B3LYP Composite Functional <=
  Basis Set: (6-31G* AUX)
    Blend: CC-PVDZ-JKFIT
  @DF-RKS Final Energy:  -381.45506749689901
    Total Energy =                       -381.4550674968990052
  Basis Set: 6-31G*
    Blend: 6-31G*
  Basis Set: (6-31G* AUX)
  @DF-RKS Final Energy:  -381.45847858895218
    Total Energy =                       -381.4584785889522323
  @DF-RKS Final Energy:  -381.46099468868829
    Total Energy =                       -381.4609946886882881
  @DF-RKS Final Energy:  -381.46156401343643
    Total Energy =                       -381.4615640134363730
  @DF-RKS Final Energy:  -381.46161103668129
    Total Energy =                       -381.4616110366812904
   => B3LYP Composite Functional <=
  Basis Set: (6-31G* AUX)
    Blend: CC-PVDZ-JKFIT
  @DF-RKS Final Energy:  -381.46161466503241
    Total Energy =                       -381.4616146650324708
  Basis Set: 6-31G*
    Blend: 6-31G*
  Basis Set: (6-31G* AUX)
    Blend: CC-PVDZ-JKFIT
   => B3LYP Composite Functional <=
  Charge       = 1
  Multiplicity = 1
  Basis Set: 6-31G*
    Blend: 6-31G*
   => B3LYP Composite Functional <=
  Basis Set: (6-31G* AUX)
    Blend: CC-PVDZ-JKFIT

    Orbital Energies (a.u.)
    -----------------------

    Doubly Occupied:

       1A    -14.575685     2A    -14.557991     3A    -10.496619
       4A    -10.372323     5A    -10.358342     6A    -10.355232
       7A    -10.346424     8A    -10.341823     9A    -10.340281
      10A     -1.182432    11A     -1.088719    12A     -1.014914
      13A     -0.928194    14A     -0.902866    15A     -0.842923
      16A     -0.779713    17A     -0.771944    18A     -0.736904
      19A     -0.727638    20A     -0.694472    21A     -0.668477
      22A     -0.625843    23A     -0.607674    24A     -0.582248
      25A     -0.580043    26A     -0.567648    27A     -0.517597
      28A     -0.506548    29A     -0.498196    30A     -0.478607
      31A     -0.413810    32A     -0.406439

  @DF-RKS Final Energy:  -381.46161533219822

   => Energetics <=

    Nuclear Repulsion Energy =            416.5766738635289812
    One-Electron Energy =               -1328.3970333922206919
    Two-Electron Energy =                 574.7686062758650678
    DFT Exchange-Correlation Energy =     -44.3980673593715949
    Empirical Dispersion Energy =          -0.0117947200000000
    PCM Polarization Energy =               0.0000000000000000
    EFP Energy =                            0.0000000000000000
    Total Energy =                       -381.4616153321982210
    Molecular point group: c1
  Basis Set: 6-31G*
    Blend: 6-31G*
  Basis Set: (6-31G* AUX)
    Blend: CC-PVDZ-JKFIT
   => B3LYP Composite Functional <=

  -Total Gradient:
     Atom            X                  Y                   Z
    ------   -----------------  -----------------  -----------------
       1        0.007929444657    -0.004201369268     0.000000270121
       2       -0.000010207526    -0.000001583496     0.000027212109
       3        0.000007358645     0.000004083579    -0.000008853471
       4       -0.000001315793    -0.000003340773     0.000004462111
       5       -0.000004497344    -0.000000592743    -0.000000324412
       6       -0.000016895661     0.000001927739     0.000025863663
       7       -0.013233998090     0.009015697101    -0.003298722739
       8       -0.000007549609     0.000002454773     0.000013111101
       9        0.000000573327    -0.000000678511     0.000001829720
      10       -0.000001393185     0.000002931703    -0.000002374442
      11        0.000003388881     0.000001119409     0.000001678485
      12        0.000013420463     0.000004944583     0.000002369557
      13        0.008250645977    -0.012206722746     0.012739422609
      14        0.000035686936    -0.000053827282    -0.000029412394
      15        0.000015572076    -0.000004784161     0.000008210586
      16        0.000006812924    -0.000015801463    -0.000014599728
      17       -0.003010562909     0.007457538827    -0.009435116772
      18        0.000030751976    -0.000009537950    -0.000049544949

  **** Optimization is complete! (in 8 steps) ****
    Final optimized geometry and variables:
    Molecular point group: c1

    Geometry (in Angstrom), charge = 1, multiplicity = 1:

    C           -0.025169806700     0.006715323987    -0.165636285313
    C            0.057116471148     1.228418758914     0.536275948078
    C            0.077855943169     1.226200919008     1.924993780433
    C            0.011689036661     0.013774318270     2.622104937406
    C           -0.081657977470    -1.199214796230     1.931975208739
    C           -0.106916048035    -1.210233112969     0.541896359184
    C           -0.023754067529    -0.011285318929    -1.622039136814
    H            0.056012119086     2.174004996214     0.000589226301
    H            0.130588425308     2.164914930075     2.466699936882
    H            0.029979356483     0.016067584140     3.707740296123
    H           -0.124662693402    -2.135593698894     2.478650896359
    H           -0.143259365344    -2.149632160738     0.000641620470
    N           -0.570518827273    -1.063843108450    -2.279677884935
    N            0.679483070568     0.888187239141    -2.300157685936
    H            0.647122816353     0.955210551751    -3.311252197047
    H            1.321204796290     1.507964481065    -1.820058239254
    H           -1.555489215915    -1.251718659988    -2.113035972608
    H           -0.351471033397    -1.144514246367    -3.269986808066

  Mulliken Charges: (a.u.)
   Center  Symbol    Alpha    Beta     Spin     Total
       1     C     2.95336  2.95336  0.00000  0.09328
       2     C     3.08452  3.08452  0.00000 -0.16905
       3     C     3.06272  3.06272  0.00000 -0.12545
       4     C     3.05016  3.05016  0.00000 -0.10031
       5     C     3.06263  3.06263  0.00000 -0.12526
       6     C     3.07347  3.07347  0.00000 -0.14693
       7     C     2.74928  2.74928  0.00000  0.50144
       8     H     0.41523  0.41523  0.00000  0.16954
       9     H     0.40515  0.40515  0.00000  0.18970
      10     H     0.40296  0.40296  0.00000  0.19409
      11     H     0.40472  0.40472  0.00000  0.19056
      12     H     0.40618  0.40618  0.00000  0.18765
      13     N     3.85779  3.85779  0.00000 -0.71559
      14     N     3.85169  3.85169  0.00000 -0.70339
      15     H     0.30496  0.30496  0.00000  0.39007
      16     H     0.29925  0.29925  0.00000  0.40149
      17     H     0.30202  0.30202  0.00000  0.39597
      18     H     0.31391  0.31391  0.00000  0.37218

   Total alpha = 32.00000, Total beta = 32.00000, Total charge =  1.00000

*** Psi4 exiting successfully. Buy a developer a beer!
