                               Psi4 1.1 release

  ==> Input File <==

--------------------------------------------------------------------------
set_num_threads(1)
set_memory(4203741184)

set { reference rks }
set { basis cc-pVDZ }

molecule MOL {
    0 1
    noreorient
    nocom
    symmetry c1
    O    1.141000   0.017000   0.083000
    C    2.558000   0.086000  -0.005000
    C    3.192000  -0.789000   1.067000
    O    4.610000  -0.719000   0.979000
    H    0.789000   0.590000  -0.620000
    H    2.874000   1.128000   0.115000
    H    2.871000  -0.243000  -1.001000
    H    2.876000  -1.830000   0.947000
    H    2.879000  -0.459000   2.064000
    H    4.959721  -1.409535   1.568697
}

set optking { frozen_dihedral = (" 2 3 4 10 ") }

energy, wfn = energy('B3LYP-D3', return_wfn=True)

import os
os.chdir(os.environ['HTMD_PSI4_WORKDIR'])

oeprop(wfn, 'DIPOLE', 'QUADRUPOLE', 'MULLIKEN_CHARGES')

with open('psi4out.xyz', 'w') as f:
    f.write('10 ' )
    f.write('%.12f\n' % energy)
    f.write(MOL.save_string_xyz())
--------------------------------------------------------------------------

    Molecular point group: c1

    Geometry (in Angstrom), charge = 0, multiplicity = 1:

       Center              X                  Y                   Z               Mass
    ------------   -----------------  -----------------  -----------------  -----------------
           O          1.141000000000     0.017000000000     0.083000000000    15.994914619560
           C          2.558000000000     0.086000000000    -0.005000000000    12.000000000000
           C          3.192000000000    -0.789000000000     1.067000000000    12.000000000000
           O          4.610000000000    -0.719000000000     0.979000000000    15.994914619560
           H          0.789000000000     0.590000000000    -0.620000000000     1.007825032070
           H          2.874000000000     1.128000000000     0.115000000000     1.007825032070
           H          2.871000000000    -0.243000000000    -1.001000000000     1.007825032070
           H          2.876000000000    -1.830000000000     0.947000000000     1.007825032070
           H          2.879000000000    -0.459000000000     2.064000000000     1.007825032070
           H          4.959721000000    -1.409535000000     1.568697000000     1.007825032070

  Charge       = 0
  Multiplicity = 1
  Basis Set: CC-PVDZ
    Blend: CC-PVDZ
   => B3LYP Composite Functional <=
  Basis Set: (CC-PVDZ AUX)
    Blend: CC-PVDZ-JKFIT

    Orbital Energies (a.u.)
    -----------------------

    Doubly Occupied:

       1A    -19.131739     2A    -19.131588     3A    -10.226356
       4A    -10.226083     5A     -1.018861     6A     -1.008600
       7A     -0.732290     8A     -0.603722     9A     -0.525985
      10A     -0.480314    11A     -0.473574    12A     -0.412521
      13A     -0.395133    14A     -0.349901    15A     -0.319350
      16A     -0.264208    17A     -0.263480

  @DF-RKS Final Energy:  -230.25727760085078

   => Energetics <=

    Nuclear Repulsion Energy =            129.4446825305919049
    One-Electron Energy =                -570.6437823346575442
    Two-Electron Energy =                 235.4850120923881605
    DFT Exchange-Correlation Energy =     -24.5387803091733012
    Empirical Dispersion Energy =          -0.0044095800000000
    PCM Polarization Energy =               0.0000000000000000
    EFP Energy =                            0.0000000000000000
    Total Energy =                       -230.2572776008507844

  Mulliken Charges: (a.u.)
   Center  Symbol    Alpha    Beta     Spin     Total
       1     O     4.14045  4.14045  0.00000 -0.28091
       2     C     2.93619  2.93619  0.00000  0.12763
       3     C     2.93646  2.93646  0.00000  0.12709
       4     O     4.14063  4.14063  0.00000 -0.28126
       5     H     0.42733  0.42733  0.00000  0.14534
       6     H     0.49760  0.49760  0.00000  0.00479
       7     H     0.49859  0.49859  0.00000  0.00281
       8     H     0.49808  0.49808  0.00000  0.00384
       9     H     0.49747  0.49747  0.00000  0.00506
      10     H     0.42720  0.42720  0.00000  0.14560

   Total alpha = 17.00000, Total beta = 17.00000, Total charge = -0.00000

*** Psi4 exiting successfully. Buy a developer a beer!
