                               Psi4 1.1 release

  ==> Input File <==

--------------------------------------------------------------------------
set_num_threads(1)
set_memory(4203741184)

set { reference rks }
set { basis cc-pVDZ }

molecule MOL {
    0 1
    noreorient
    nocom
    symmetry c1
    C    0.940800  -0.041500  -0.056200
    C    2.276600  -0.041500  -0.056200
    H    0.380900   0.578300  -0.749400
    H    0.380900  -0.661400   0.637000
    H    2.836500   0.689257  -0.631242
    H    2.836500  -0.772355   0.518824
}

set optking { frozen_dihedral = (" 3 1 2 5 ") }

energy, wfn = energy('B3LYP-D3', return_wfn=True)

import os
os.chdir(os.environ['HTMD_PSI4_WORKDIR'])

oeprop(wfn, 'DIPOLE', 'QUADRUPOLE', 'MULLIKEN_CHARGES')

with open('psi4out.xyz', 'w') as f:
    f.write('6 ' )
    f.write('%.12f\n' % energy)
    f.write(MOL.save_string_xyz())
--------------------------------------------------------------------------

    Molecular point group: c1

    Geometry (in Angstrom), charge = 0, multiplicity = 1:

       Center              X                  Y                   Z               Mass
    ------------   -----------------  -----------------  -----------------  -----------------
           C          0.940800000000    -0.041500000000    -0.056200000000    12.000000000000
           C          2.276600000000    -0.041500000000    -0.056200000000    12.000000000000
           H          0.380900000000     0.578300000000    -0.749400000000     1.007825032070
           H          0.380900000000    -0.661400000000     0.637000000000     1.007825032070
           H          2.836500000000     0.689257000000    -0.631242000000     1.007825032070
           H          2.836500000000    -0.772355000000     0.518824000000     1.007825032070

  Charge       = 0
  Multiplicity = 1
  Basis Set: CC-PVDZ
    Blend: CC-PVDZ
   => B3LYP Composite Functional <=
  Basis Set: (CC-PVDZ AUX)
    Blend: CC-PVDZ-JKFIT

    Orbital Energies (a.u.)
    -----------------------

    Doubly Occupied:

       1A    -10.188248     2A    -10.187469     3A     -0.760358
       4A     -0.578781     5A     -0.468860     6A     -0.416621
       7A     -0.359144     8A     -0.270202

  @DF-RKS Final Energy:   -78.58977413456363

   => Energetics <=

    Nuclear Repulsion Energy =             33.3197018327587600
    One-Electron Energy =                -170.1982936416300731
    Two-Electron Energy =                  68.2403581237055192
    DFT Exchange-Correlation Energy =      -9.9506934593978347
    Empirical Dispersion Energy =          -0.0008469900000000
    PCM Polarization Energy =               0.0000000000000000
    EFP Energy =                            0.0000000000000000
    Total Energy =                        -78.5897741345636263

  Mulliken Charges: (a.u.)
   Center  Symbol    Alpha    Beta     Spin     Total
       1     C     3.01981  3.01981  0.00000 -0.03962
       2     C     3.01981  3.01981  0.00000 -0.03962
       3     H     0.49010  0.49010  0.00000  0.01980
       4     H     0.49009  0.49009  0.00000  0.01982
       5     H     0.49010  0.49010  0.00000  0.01980
       6     H     0.49009  0.49009  0.00000  0.01982

   Total alpha =  8.00000, Total beta =  8.00000, Total charge = -0.00000

*** Psi4 exiting successfully. Buy a developer a beer!
