                              Psi4 1.0.54 Driver

  ==> Input File <==

--------------------------------------------------------------------------
set_num_threads(1)
set_memory(3145728000)

set { reference rks }
set { basis 6-31G* }

molecule MOL {
    1 1
    noreorient
    nocom
    symmetry c1
    C    0.000000   0.000000  -0.177864
    C    0.036678   1.219374   0.524165
    C    0.031764   1.213119   1.915444
    C   -0.000000  -0.000000   2.610107
    C   -0.031764  -1.213119   1.915444
    C   -0.036677  -1.219374   0.524165
    C    0.000000  -0.000000  -1.644734
    H    0.018170   2.164705  -0.010853
    H    0.042402   2.152895   2.457886
    H   -0.000000  -0.000000   3.695756
    H   -0.042402  -2.152895   2.457886
    H   -0.018170  -2.164705  -0.010853
    N    0.714008  -0.904833  -2.308461
    N   -0.714008   0.904833  -2.308461
    H   -0.820900   0.890289  -3.315997
    H   -1.122369   1.686726  -1.813317
    H    1.122369  -1.686726  -1.813317
    H    0.820900  -0.890289  -3.315997
}

set optking { frozen_dihedral = (" 2 1 7 13 ") }

set optking { dynamic_level = 1
 geom_maxiter = 250
 print_trajectory_xyz_file = True }

energy, wfn = optimize('B3LYP-D3', return_wfn=True)

import os
os.chdir(os.environ['HTMD_PSI4_WORKDIR'])

oeprop(wfn, 'DIPOLE', 'QUADRUPOLE', 'MULLIKEN_CHARGES')

with open('psi4out.xyz', 'w') as f:
    f.write('18 ' )
    f.write('%.12f\n' % energy)
    f.write(MOL.save_string_xyz())
--------------------------------------------------------------------------

    Molecular point group: c1
  Charge       = 1
  Multiplicity = 1
  Basis Set: 6-31G*
   => B3LYP-D3 Composite Functional <=
  Basis Set:
  @DF-RKS Final Energy:  -381.46525559782623
    Total Energy =                       -381.4652555978259443
    Molecular point group: c1
  Basis Set: 6-31G*
  Basis Set:
   => B3LYP-D3 Composite Functional <=
  Basis Set: 6-31G*
   => B3LYP-D3 Composite Functional <=
  Basis Set:
  @DF-RKS Final Energy:  -381.46875959015864
    Total Energy =                       -381.4687595901584700
  Basis Set: 6-31G*
  Basis Set:
   => B3LYP-D3 Composite Functional <=
  Basis Set: 6-31G*
   => B3LYP-D3 Composite Functional <=
  Basis Set:
  @DF-RKS Final Energy:  -381.47014845436570
    Total Energy =                       -381.4701484543656989
  Basis Set: 6-31G*
  Basis Set:
  @DF-RKS Final Energy:  -381.47042910036140
    Total Energy =                       -381.4704291003615140
   => B3LYP-D3 Composite Functional <=
  Basis Set:
  @DF-RKS Final Energy:  -381.47044127809801
    Total Energy =                       -381.4704412780978373
  Basis Set: 6-31G*
  Basis Set:
   => B3LYP-D3 Composite Functional <=
  Basis Set: 6-31G*
   => B3LYP-D3 Composite Functional <=
  Basis Set:
  @DF-RKS Final Energy:  -381.47044868227550
    Total Energy =                       -381.4704486822754461
  Basis Set: 6-31G*
  Basis Set:
   => B3LYP-D3 Composite Functional <=
  Charge       = 1
  Multiplicity = 1
  Basis Set: 6-31G*
   => B3LYP-D3 Composite Functional <=
  Basis Set:

    Orbital Energies (a.u.)
    -----------------------

    Doubly Occupied:

       1A    -14.568529     2A    -14.568480     3A    -10.497344
       4A    -10.372757     5A    -10.355670     6A    -10.355565
       7A    -10.342373     8A    -10.340009     9A    -10.339945
      10A     -1.184144    11A     -1.092438    12A     -1.013908
      13A     -0.926295    14A     -0.901730    15A     -0.845263
      16A     -0.785808    17A     -0.772921    18A     -0.742611
      19A     -0.732401    20A     -0.688911    21A     -0.668986
      22A     -0.624774    23A     -0.617923    24A     -0.585893
      25A     -0.578608    26A     -0.572440    27A     -0.518266
      28A     -0.504881    29A     -0.497663    30A     -0.473211
      31A     -0.411293    32A     -0.405269

  @DF-RKS Final Energy:  -381.47044919797310

   => Energetics <=

    Nuclear Repulsion Energy =            416.9201646495560567
    One-Electron Energy =               -1329.0607005581077829
    Two-Electron Energy =                 575.0879520219504002
    DFT Exchange-Correlation Energy =     -44.4059052313717402
    Empirical Dispersion Energy =          -0.0119600800000000
    PCM Polarization Energy =               0.0000000000000000
    EFP Energy =                            0.0000000000000000
    Total Energy =                       -381.4704491979730960
    Molecular point group: c1
  Basis Set: 6-31G*
  Basis Set:
   => B3LYP-D3 Composite Functional <=

  -Total Gradient:
     Atom            X                  Y                   Z
    ------   -----------------  -----------------  -----------------
       1       -0.000861155657     0.000293143055    -0.000044221701
       2        0.000812012835    -0.000021412536     0.000007073949
       3        0.000007719343    -0.000002368490    -0.000005838971
       4        0.000012527456    -0.000003131286    -0.000010682952
       5       -0.000003399763     0.000000941128    -0.000000656832
       6       -0.000026044671    -0.000013475610     0.000014766163
       7       -0.000609149580    -0.000773115714     0.000048580088
       8       -0.000015433419    -0.000005774308    -0.000009804420
       9       -0.000000691070    -0.000000874422     0.000000630747
      10       -0.000006291862     0.000000768760     0.000000208474
      11        0.000000132750     0.000000035246     0.000000668248
      12       -0.000004053424     0.000003254753    -0.000001349593
      13        0.000710310009     0.000537287098    -0.000001331644
      14       -0.000048439561    -0.000013223559     0.000035889780
      15        0.000018550614     0.000012548101    -0.000007644476
      16        0.000036513044    -0.000011502712    -0.000027229789
      17       -0.000007503555     0.000001991961    -0.000018081780
      18       -0.000015177210    -0.000007829654    -0.000001240288

  **** Optimization is complete! (in 7 steps) ****
    Final optimized geometry and variables:
    Molecular point group: c1

    Geometry (in Angstrom), charge = 1, multiplicity = 1:

    C           -0.012528747304    -0.001493931422    -0.177920666325
    C            0.032288564492     1.218411609529     0.521917915228
    C            0.044868672513     1.211981121992     1.913387794665
    C            0.004533993946    -0.000627915857     2.608400370496
    C           -0.042183362847    -1.213861774709     1.914676064766
    C           -0.043636981102    -1.221107208869     0.523250617438
    C           -0.005929748193    -0.001502657972    -1.645266261898
    H            0.102757769914     2.159733567861    -0.015825176317
    H            0.096175523938     2.150625934104     2.455506922322
    H            0.010296122155    -0.000243690795     3.694042734957
    H           -0.085846996338    -2.152204960755     2.457982134446
    H           -0.117304038242    -2.163006172964    -0.013194630875
    N            0.703051489516    -0.913386486459    -2.303662331354
    N           -0.699067174830     0.918075503930    -2.309948593627
    H           -0.651951952307     1.023337362986    -3.316795820734
    H           -1.351957666267     1.510914748600    -1.814222180359
    H            1.346089464176    -1.510227382149    -1.799914676475
    H            0.670346066778    -1.015417667052    -3.311415216353

  Mulliken Charges: (a.u.)
   Center  Symbol    Alpha    Beta     Spin     Total
       1     C     2.96005  2.96005  0.00000  0.07990
       2     C     3.08083  3.08083  0.00000 -0.16165
       3     C     3.06244  3.06244  0.00000 -0.12488
       4     C     3.05158  3.05158  0.00000 -0.10316
       5     C     3.06265  3.06265  0.00000 -0.12529
       6     C     3.08164  3.08164  0.00000 -0.16328
       7     C     2.72411  2.72411  0.00000  0.55179
       8     H     0.41401  0.41401  0.00000  0.17198
       9     H     0.40554  0.40554  0.00000  0.18893
      10     H     0.40406  0.40406  0.00000  0.19187
      11     H     0.40554  0.40554  0.00000  0.18892
      12     H     0.41396  0.41396  0.00000  0.17209
      13     N     3.86162  3.86162  0.00000 -0.72325
      14     N     3.86196  3.86196  0.00000 -0.72391
      15     H     0.30566  0.30566  0.00000  0.38868
      16     H     0.29937  0.29937  0.00000  0.40127
      17     H     0.29933  0.29933  0.00000  0.40133
      18     H     0.30566  0.30566  0.00000  0.38868

   Total alpha = 32.00000, Total beta = 32.00000, Total charge =  1.00000

*** Psi4 exiting successfully. Buy a developer a beer!
