                               Psi4 1.1 release

  ==> Input File <==

--------------------------------------------------------------------------
set_num_threads(1)
set_memory(4203741184)

set { reference rks }
set { basis cc-pVDZ }

molecule MOL {
    0 1
    noreorient
    nocom
    symmetry c1
    O    1.141000   0.017000   0.083000
    C    2.558000   0.086000  -0.005000
    C    3.192000  -0.789000   1.067000
    O    3.812614   0.023087   2.056304
    H    0.789000   0.590000  -0.620000
    H    2.874000   1.128000   0.115000
    H    2.871000  -0.243000  -1.001000
    H    3.942123  -1.452160   0.624880
    H    2.432610  -1.417692   1.545489
    H    4.198966  -0.583488   2.711806
}

set optking { frozen_dihedral = (" 1 2 3 4 ") }

energy, wfn = energy('B3LYP-D3', return_wfn=True)

import os
os.chdir(os.environ['HTMD_PSI4_WORKDIR'])

oeprop(wfn, 'DIPOLE', 'QUADRUPOLE', 'MULLIKEN_CHARGES')

with open('psi4out.xyz', 'w') as f:
    f.write('10 ' )
    f.write('%.12f\n' % energy)
    f.write(MOL.save_string_xyz())
--------------------------------------------------------------------------

    Molecular point group: c1

    Geometry (in Angstrom), charge = 0, multiplicity = 1:

       Center              X                  Y                   Z               Mass
    ------------   -----------------  -----------------  -----------------  -----------------
           O          1.141000000000     0.017000000000     0.083000000000    15.994914619560
           C          2.558000000000     0.086000000000    -0.005000000000    12.000000000000
           C          3.192000000000    -0.789000000000     1.067000000000    12.000000000000
           O          3.812614000000     0.023087000000     2.056304000000    15.994914619560
           H          0.789000000000     0.590000000000    -0.620000000000     1.007825032070
           H          2.874000000000     1.128000000000     0.115000000000     1.007825032070
           H          2.871000000000    -0.243000000000    -1.001000000000     1.007825032070
           H          3.942123000000    -1.452160000000     0.624880000000     1.007825032070
           H          2.432610000000    -1.417692000000     1.545489000000     1.007825032070
           H          4.198966000000    -0.583488000000     2.711806000000     1.007825032070

  Charge       = 0
  Multiplicity = 1
  Basis Set: CC-PVDZ
    Blend: CC-PVDZ
   => B3LYP Composite Functional <=
  Basis Set: (CC-PVDZ AUX)
    Blend: CC-PVDZ-JKFIT

    Orbital Energies (a.u.)
    -----------------------

    Doubly Occupied:

       1A    -19.127647     2A    -19.127613     3A    -10.225535
       4A    -10.225349     5A     -1.016990     6A     -1.004094
       7A     -0.732901     8A     -0.603156     9A     -0.518571
      10A     -0.507925    11A     -0.432835    12A     -0.412140
      13A     -0.410219    14A     -0.345696    15A     -0.319717
      16A     -0.266788    17A     -0.254887

  @DF-RKS Final Energy:  -230.25363421635876

   => Energetics <=

    Nuclear Repulsion Energy =            130.3231377461485749
    One-Electron Energy =                -572.4553714111464160
    Two-Electron Energy =                 236.4240965213236052
    DFT Exchange-Correlation Energy =     -24.5412447826845259
    Empirical Dispersion Energy =          -0.0042522900000000
    PCM Polarization Energy =               0.0000000000000000
    EFP Energy =                            0.0000000000000000
    Total Energy =                       -230.2536342163587619

  Mulliken Charges: (a.u.)
   Center  Symbol    Alpha    Beta     Spin     Total
       1     O     4.13958  4.13958  0.00000 -0.27917
       2     C     2.93222  2.93222  0.00000  0.13556
       3     C     2.93240  2.93240  0.00000  0.13519
       4     O     4.13983  4.13983  0.00000 -0.27965
       5     H     0.43080  0.43080  0.00000  0.13840
       6     H     0.49400  0.49400  0.00000  0.01200
       7     H     0.50333  0.50333  0.00000 -0.00666
       8     H     0.50319  0.50319  0.00000 -0.00637
       9     H     0.49390  0.49390  0.00000  0.01220
      10     H     0.43075  0.43075  0.00000  0.13850

   Total alpha = 17.00000, Total beta = 17.00000, Total charge =  0.00000

*** Psi4 exiting successfully. Buy a developer a beer!
