                               Psi4 1.1 release

  ==> Input File <==

--------------------------------------------------------------------------
set_num_threads(1)
set_memory(3145728000)

set { reference rks }
set { basis 6-31G* }

molecule MOL {
    1 1
    noreorient
    nocom
    symmetry c1
    C    0.000000   0.000000  -0.177864
    C    0.036678   1.219374   0.524165
    C    0.031764   1.213119   1.915444
    C   -0.000000  -0.000000   2.610107
    C   -0.031764  -1.213119   1.915444
    C   -0.036677  -1.219374   0.524165
    C    0.000000  -0.000000  -1.644734
    H    0.018170   2.164705  -0.010853
    H    0.042402   2.152895   2.457886
    H   -0.000000  -0.000000   3.695756
    H   -0.042402  -2.152895   2.457886
    H   -0.018170  -2.164705  -0.010853
    N   -0.712590  -0.905950  -2.308460
    N    0.712590   0.905950  -2.308461
    H    0.673432   1.006469  -3.315997
    H    1.377190   1.485970  -1.813317
    H   -1.444347  -0.607694  -2.940013
    H   -0.516849  -1.899233  -2.265536
}

set optking { frozen_dihedral = (" 1 7 13 17 ") }

set optking { dynamic_level = 1
 geom_maxiter = 250
 print_trajectory_xyz_file = True }

energy, wfn = optimize('B3LYP-D3', return_wfn=True)

import os
os.chdir(os.environ['HTMD_PSI4_WORKDIR'])

oeprop(wfn, 'DIPOLE', 'QUADRUPOLE', 'MULLIKEN_CHARGES')

with open('psi4out.xyz', 'w') as f:
    f.write('18 ' )
    f.write('%.12f\n' % energy)
    f.write(MOL.save_string_xyz())
--------------------------------------------------------------------------

    Molecular point group: c1
  Charge       = 1
  Multiplicity = 1
  Basis Set: 6-31G*
    Blend: 6-31G*
   => B3LYP Composite Functional <=
  Basis Set: (6-31G* AUX)
    Blend: CC-PVDZ-JKFIT
  @DF-RKS Final Energy:  -381.43247528003587
    Total Energy =                       -381.4324752800358738
    Molecular point group: c1
  Basis Set: 6-31G*
    Blend: 6-31G*
  Basis Set: (6-31G* AUX)
    Blend: CC-PVDZ-JKFIT
   => B3LYP Composite Functional <=
  Basis Set: 6-31G*
    Blend: 6-31G*
   => B3LYP Composite Functional <=
  Basis Set: (6-31G* AUX)
    Blend: CC-PVDZ-JKFIT
  @DF-RKS Final Energy:  -381.44162302128240
    Total Energy =                       -381.4416230212823962
  Basis Set: 6-31G*
    Blend: 6-31G*
  Basis Set: (6-31G* AUX)
  @DF-RKS Final Energy:  -381.44772175783362
    Total Energy =                       -381.4477217578336194
  @DF-RKS Final Energy:  -379.25854717081546
    Total Energy =                       -379.2585471708154614
  @DF-RKS Final Energy:  -379.56492560407804
    Total Energy =                       -379.5649256040780415
  @DF-RKS Final Energy:  -379.96779947932146
    Total Energy =                       -379.9677994793215134
  @DF-RKS Final Energy:  -380.42244570030698
    Total Energy =                       -380.4224457003069233
  @DF-RKS Final Energy:  -380.86653095607159
    Total Energy =                       -380.8665309560715855
  @DF-RKS Final Energy:  -381.19572238812191
    Total Energy =                       -381.1957223881219647
  @DF-RKS Final Energy:  -381.36171439261352
    Total Energy =                       -381.3617143926135213
  @DF-RKS Final Energy:  -381.19572238812140
    Total Energy =                       -381.1957223881213395
  @DF-RKS Final Energy:  -381.25038396071187
    Total Energy =                       -381.2503839607118721
  @DF-RKS Final Energy:  -381.29979690245665
    Total Energy =                       -381.2997969024565919
  @DF-RKS Final Energy:  -381.34359330156400
    Total Energy =                       -381.3435933015639989
  @DF-RKS Final Energy:  -381.38122579189786
    Total Energy =                       -381.3812257918978617
  @DF-RKS Final Energy:  -381.41198476250293
    Total Energy =                       -381.4119847625029252
  @DF-RKS Final Energy:  -381.43491414992286
    Total Energy =                       -381.4349141499228040
  @DF-RKS Final Energy:  -381.44892615520530
    Total Energy =                       -381.4489261552052426
  @DF-RKS Final Energy:  -381.45384119680261
    Total Energy =                       -381.4538411968025571
  @DF-RKS Final Energy:  -381.45446517629318
    Total Energy =                       -381.4544651762931835
  @DF-RKS Final Energy:  -381.45468010531266
    Total Energy =                       -381.4546801053126046
  @DF-RKS Final Energy:  -381.45482262072125
    Total Energy =                       -381.4548226207211883
  @DF-RKS Final Energy:  -381.45483657860865
    Total Energy =                       -381.4548365786086492
  @DF-RKS Final Energy:  -381.45487954423970
    Total Energy =                       -381.4548795442396454
  @DF-RKS Final Energy:  -381.45488211094931
    Total Energy =                       -381.4548821109493133
  @DF-RKS Final Energy:  -381.45488267256098
    Total Energy =                       -381.4548826725610411
   => B3LYP Composite Functional <=
  Basis Set: (6-31G* AUX)
    Blend: CC-PVDZ-JKFIT
  @DF-RKS Final Energy:  -381.45489010688902
    Total Energy =                       -381.4548901068889677
  Basis Set: 6-31G*
    Blend: 6-31G*
  Basis Set: (6-31G* AUX)
    Blend: CC-PVDZ-JKFIT
   => B3LYP Composite Functional <=
  Charge       = 1
  Multiplicity = 1
  Basis Set: 6-31G*
    Blend: 6-31G*
   => B3LYP Composite Functional <=
  Basis Set: (6-31G* AUX)
    Blend: CC-PVDZ-JKFIT

    Orbital Energies (a.u.)
    -----------------------

    Doubly Occupied:

       1A    -14.576781     2A    -14.552652     3A    -10.502054
       4A    -10.380686     5A    -10.363597     6A    -10.362580
       7A    -10.348576     8A    -10.346019     9A    -10.345654
      10A     -1.184640    11A     -1.090137    12A     -1.019874
      13A     -0.930588    14A     -0.908278    15A     -0.845714
      16A     -0.786494    17A     -0.775991    18A     -0.740015
      19A     -0.728161    20A     -0.675420    21A     -0.672972
      22A     -0.636453    23A     -0.611414    24A     -0.597743
      25A     -0.581672    26A     -0.578799    27A     -0.520296
      28A     -0.513508    29A     -0.503895    30A     -0.473165
      31A     -0.415057    32A     -0.411129

  @DF-RKS Final Energy:  -381.45489046526035

   => Energetics <=

    Nuclear Repulsion Energy =            416.4017202325644007
    One-Electron Energy =               -1327.8108116490343491
    Two-Electron Energy =                 574.3640041479179672
    DFT Exchange-Correlation Energy =     -44.3980347367084249
    Empirical Dispersion Energy =          -0.0117684600000000
    PCM Polarization Energy =               0.0000000000000000
    EFP Energy =                            0.0000000000000000
    Total Energy =                       -381.4548904652603483
    Molecular point group: c1
  Basis Set: 6-31G*
    Blend: 6-31G*
  Basis Set: (6-31G* AUX)
    Blend: CC-PVDZ-JKFIT
   => B3LYP Composite Functional <=

  -Total Gradient:
     Atom            X                  Y                   Z
    ------   -----------------  -----------------  -----------------
       1       -0.004877120911     0.004513333165    -0.007692255197
       2        0.000034008652    -0.000182940846    -0.000037557680
       3       -0.000078906541     0.000015244676     0.000036689594
       4        0.000073530410    -0.000122784011     0.000035488939
       5       -0.000130840955     0.000147873388    -0.000109169949
       6        0.000072511706     0.000039480450     0.000053052275
       7        0.003101975245    -0.006075508951     0.012352553757
       8        0.000051294323     0.000031618917    -0.000053408078
       9        0.000012242677    -0.000005539351     0.000018988607
      10       -0.000004021906     0.000012709152     0.000053740409
      11       -0.000021963785    -0.000012141747     0.000023377379
      12        0.000029345874    -0.000029234050     0.000026568630
      13        0.015219234390    -0.000753441149    -0.005756799442
      14        0.000040708912     0.000059629462     0.000047471481
      15        0.000008364018    -0.000015618015    -0.000006315315
      16       -0.000022373009    -0.000026254797    -0.000022739438
      17       -0.013498632640     0.002444572969     0.001017968314
      18        0.000003599341    -0.000041264815    -0.000002506598

  **** Optimization is complete! (in 18 steps) ****
    Final optimized geometry and variables:
    Molecular point group: c1

    Geometry (in Angstrom), charge = 1, multiplicity = 1:

    C            0.144735513124    -0.089082958861    -0.093107599154
    C            0.020758753691     1.314250067852    -0.061194079594
    C           -0.865169852998     1.910255502554     0.830220699032
    C           -1.611199473616     1.122682686708     1.711962493733
    C           -1.482026144103    -0.269459379419     1.695588430227
    C           -0.614623472618    -0.877006365591     0.795036357650
    C            1.051864430835    -0.725177083727    -1.052567441860
    H            0.557980811977     1.939786557668    -0.768360439064
    H           -0.978472457777     2.989436983636     0.832073547736
    H           -2.295396997924     1.593976332523     2.410781628100
    H           -2.051384092824    -0.879599765101     2.389119449417
    H           -0.495125827497    -1.957055607166     0.825229421505
    N            0.788455664278    -1.943191204185    -1.599241229523
    N            2.111441392195    -0.076511736827    -1.507549340563
    H            2.741884305770    -0.503277364347    -2.177846356072
    H            2.390195290790     0.812646175079    -1.113148659054
    H            0.704452087930    -1.982755931786    -2.612552774007
    H           -0.028942931234    -2.394404909017    -1.199679108500

  Mulliken Charges: (a.u.)
   Center  Symbol    Alpha    Beta     Spin     Total
       1     C     2.93850  2.93850  0.00000  0.12300
       2     C     3.08424  3.08424  0.00000 -0.16847
       3     C     3.06185  3.06185  0.00000 -0.12369
       4     C     3.05098  3.05098  0.00000 -0.10196
       5     C     3.06216  3.06216  0.00000 -0.12431
       6     C     3.08811  3.08811  0.00000 -0.17622
       7     C     2.75444  2.75444  0.00000  0.49112
       8     H     0.41656  0.41656  0.00000  0.16689
       9     H     0.40421  0.40421  0.00000  0.19159
      10     H     0.40234  0.40234  0.00000  0.19533
      11     H     0.40382  0.40382  0.00000  0.19237
      12     H     0.41152  0.41152  0.00000  0.17696
      13     N     3.85941  3.85941  0.00000 -0.71882
      14     N     3.84984  3.84984  0.00000 -0.69968
      15     H     0.29955  0.29955  0.00000  0.40090
      16     H     0.29871  0.29871  0.00000  0.40258
      17     H     0.30414  0.30414  0.00000  0.39172
      18     H     0.30965  0.30965  0.00000  0.38070

   Total alpha = 32.00000, Total beta = 32.00000, Total charge =  1.00000

*** Psi4 exiting successfully. Buy a developer a beer!
