                              Psi4 1.0.54 Driver

  ==> Input File <==

--------------------------------------------------------------------------
set_num_threads(1)
set_memory(3145728000)

set { reference rks }
set { basis 6-31G* }

molecule MOL {
    1 1
    noreorient
    nocom
    symmetry c1
    C    0.000000   0.000000  -0.177864
    C    0.036678   1.219374   0.524165
    C    0.031764   1.213119   1.915444
    C   -0.000000  -0.000000   2.610107
    C   -0.031764  -1.213119   1.915444
    C   -0.036677  -1.219374   0.524165
    C    0.000000  -0.000000  -1.644734
    H    0.018170   2.164705  -0.010853
    H    0.042402   2.152895   2.457886
    H   -0.000000  -0.000000   3.695756
    H   -0.042402  -2.152895   2.457886
    H   -0.018170  -2.164705  -0.010853
    N   -0.712590  -0.905950  -2.308460
    N    0.712590   0.905950  -2.308461
    H    0.673432   1.006469  -3.315997
    H    1.377190   1.485970  -1.813317
    H   -0.293281  -1.791499  -2.559991
    H   -1.694682  -0.782482  -2.525294
}

set optking { frozen_dihedral = (" 1 7 13 17 ") }

set optking { dynamic_level = 1
 geom_maxiter = 250
 print_trajectory_xyz_file = True }

energy, wfn = optimize('B3LYP-D3', return_wfn=True)

import os
os.chdir(os.environ['HTMD_PSI4_WORKDIR'])

oeprop(wfn, 'DIPOLE', 'QUADRUPOLE', 'MULLIKEN_CHARGES')

with open('psi4out.xyz', 'w') as f:
    f.write('18 ' )
    f.write('%.12f\n' % energy)
    f.write(MOL.save_string_xyz())
--------------------------------------------------------------------------

    Molecular point group: c1
  Charge       = 1
  Multiplicity = 1
  Basis Set: 6-31G*
   => B3LYP-D3 Composite Functional <=
  Basis Set:
  @DF-RKS Final Energy:  -381.42631371630239
    Total Energy =                       -381.4263137163024453
    Molecular point group: c1
  Basis Set: 6-31G*
  Basis Set:
   => B3LYP-D3 Composite Functional <=
  Basis Set: 6-31G*
   => B3LYP-D3 Composite Functional <=
  Basis Set:
  @DF-RKS Final Energy:  -381.43457912806321
    Total Energy =                       -381.4345791280631488
  Basis Set: 6-31G*
  Basis Set:
   => B3LYP-D3 Composite Functional <=
  Basis Set: 6-31G*
   => B3LYP-D3 Composite Functional <=
  Basis Set:
  @DF-RKS Final Energy:  -381.43968964779168
    Total Energy =                       -381.4396896477916812
  Basis Set: 6-31G*
  Basis Set:
  @DF-RKS Final Energy:  -380.34102666636670
    Total Energy =                       -380.3410266663668153
  @DF-RKS Final Energy:  -380.70436646471239
    Total Energy =                       -380.7043664647122796
  @DF-RKS Final Energy:  -381.07746985073874
    Total Energy =                       -381.0774698507387939
  @DF-RKS Final Energy:  -381.34228159995894
    Total Energy =                       -381.3422815999589943
  @DF-RKS Final Energy:  -381.07746985073828
    Total Energy =                       -381.0774698507383960
  @DF-RKS Final Energy:  -381.14659343842260
    Total Energy =                       -381.1465934384227694
  @DF-RKS Final Energy:  -381.21078341247716
    Total Energy =                       -381.2107834124772126
  @DF-RKS Final Energy:  -381.26926550071738
    Total Energy =                       -381.2692655007174380
  @DF-RKS Final Energy:  -381.32114278948836
    Total Energy =                       -381.3211427894884196
  @DF-RKS Final Energy:  -381.36544063558563
    Total Energy =                       -381.3654406355856281
  @DF-RKS Final Energy:  -381.40109496963004
    Total Energy =                       -381.4010949696300941
  @DF-RKS Final Energy:  -381.42702197310649
    Total Energy =                       -381.4270219731064344
  @DF-RKS Final Energy:  -381.44229224335959
    Total Energy =                       -381.4422922433595886
  @DF-RKS Final Energy:  -381.44737556204416
    Total Energy =                       -381.4473755620441011
  @DF-RKS Final Energy:  -381.44838857075342
    Total Energy =                       -381.4483885707534228
  @DF-RKS Final Energy:  -381.44862399364189
    Total Energy =                       -381.4486239936418315
  @DF-RKS Final Energy:  -381.44860652978514
    Total Energy =                       -381.4486065297851951
  @DF-RKS Final Energy:  -381.44875194725972
    Total Energy =                       -381.4487519472596659
  @DF-RKS Final Energy:  -381.44863135159943
    Total Energy =                       -381.4486313515995448
  @DF-RKS Final Energy:  -381.44877317571843
    Total Energy =                       -381.4487731757183724
  @DF-RKS Final Energy:  -381.44854138964229
    Total Energy =                       -381.4485413896423438
  @DF-RKS Final Energy:  -381.44878204949811
    Total Energy =                       -381.4487820494980497
  @DF-RKS Final Energy:  -381.44872721615758
    Total Energy =                       -381.4487272161576357
  @DF-RKS Final Energy:  -381.44880244120043
    Total Energy =                       -381.4488024412004279
  @DF-RKS Final Energy:  -381.44871744613118
    Total Energy =                       -381.4487174461312406
  @DF-RKS Final Energy:  -381.44880423290158
    Total Energy =                       -381.4488042329016366
   => B3LYP-D3 Composite Functional <=
  Basis Set:
  @DF-RKS Final Energy:  -381.44881458265502
    Total Energy =                       -381.4488145826551317
  Basis Set: 6-31G*
  Basis Set:
   => B3LYP-D3 Composite Functional <=
  Basis Set: 6-31G*
   => B3LYP-D3 Composite Functional <=
  Basis Set:
  @DF-RKS Final Energy:  -381.44882671139652
    Total Energy =                       -381.4488267113964071
  Basis Set: 6-31G*
  Basis Set:
   => B3LYP-D3 Composite Functional <=
  Charge       = 1
  Multiplicity = 1
  Basis Set: 6-31G*
   => B3LYP-D3 Composite Functional <=
  Basis Set:

    Orbital Energies (a.u.)
    -----------------------

    Doubly Occupied:

       1A    -14.580590     2A    -14.535771     3A    -10.497629
       4A    -10.381143     5A    -10.368178     6A    -10.367843
       7A    -10.357049     8A    -10.350843     9A    -10.350448
      10A     -1.179168    11A     -1.079684    12A     -1.023463
      13A     -0.933160    14A     -0.912872    15A     -0.843571
      16A     -0.785978    17A     -0.774231    18A     -0.740796
      19A     -0.715475    20A     -0.682107    21A     -0.672072
      22A     -0.637951    23A     -0.613967    24A     -0.592736
      25A     -0.587333    26A     -0.563002    27A     -0.524816
      28A     -0.517131    29A     -0.507547    30A     -0.465879
      31A     -0.423691    32A     -0.416321

  @DF-RKS Final Energy:  -381.44882761489072

   => Energetics <=

    Nuclear Repulsion Energy =            416.0646657003410951
    One-Electron Energy =               -1327.1239029906332689
    Two-Electron Energy =                 574.0132579426675647
    DFT Exchange-Correlation Energy =     -44.3907533072661167
    Empirical Dispersion Energy =          -0.0120949600000000
    PCM Polarization Energy =               0.0000000000000000
    EFP Energy =                            0.0000000000000000
    Total Energy =                       -381.4488276148907744
    Molecular point group: c1
  Basis Set: 6-31G*
  Basis Set:
   => B3LYP-D3 Composite Functional <=

  -Total Gradient:
     Atom            X                  Y                   Z
    ------   -----------------  -----------------  -----------------
       1        0.004533469998    -0.007725324093    -0.003542498661
       2       -0.000034128334    -0.000066024505    -0.000213834420
       3        0.000010397941     0.000211756401     0.000277600920
       4       -0.000271540693    -0.000008507582     0.000076518037
       5        0.000134449455     0.000128213765    -0.000138804058
       6       -0.000049871356     0.000041472198     0.000040241054
       7       -0.005970548992     0.011053113364     0.009211761162
       8       -0.000021457471    -0.000030680927    -0.000044024536
       9        0.000008132575    -0.000149035081    -0.000066339765
      10        0.000180908997    -0.000080034305    -0.000022738021
      11       -0.000003927102    -0.000034368462     0.000072383670
      12        0.000008120174    -0.000045970678    -0.000042859363
      13       -0.002178390100    -0.000220380208    -0.017560855090
      14        0.000058941231     0.000253997555     0.000027951942
      15       -0.000067195554     0.000024339065    -0.000060752021
      16       -0.000023711257    -0.000001676084     0.000042559875
      17        0.003730336846    -0.003367203348     0.011745343761
      18       -0.000063152718     0.000015988633     0.000177512602

  **** Optimization is complete! (in 20 steps) ****
    Final optimized geometry and variables:
    Molecular point group: c1

    Geometry (in Angstrom), charge = 1, multiplicity = 1:

    C           -0.143030030508     0.055791526680    -0.132083577853
    C            0.750884474007     1.151092670058    -0.144465012837
    C            1.760093637321     1.233225287933     0.804739724022
    C            1.887659244200     0.231998187820     1.776176185481
    C            0.999107582466    -0.848066149004     1.806402604512
    C           -0.020122819647    -0.934842552127     0.866246016762
    C           -1.176411651446    -0.076455442658    -1.143294668575
    H            0.623696871320     1.958387304090    -0.860731167503
    H            2.439929588724     2.078660174997     0.800695048835
    H            2.680590598168     0.297650147707     2.515254895367
    H            1.105305389626    -1.621189750949     2.560399004954
    H           -0.689725682691    -1.789033867827     0.878516246893
    N           -2.334757961688    -0.819887279249    -0.981657260729
    N           -1.013097853286     0.418725899872    -2.356013718839
    H           -1.780098150600     0.376382261542    -3.020718714288
    H           -0.137454718944     0.829340551492    -2.659321919110
    H           -2.253188173970    -1.792828358013    -1.276487747435
    H           -2.636720343026    -0.830492612347    -0.008626939655

  Mulliken Charges: (a.u.)
   Center  Symbol    Alpha    Beta     Spin     Total
       1     C     2.93400  2.93400  0.00000  0.13200
       2     C     3.08335  3.08335  0.00000 -0.16670
       3     C     3.06149  3.06149  0.00000 -0.12299
       4     C     3.04924  3.04924  0.00000 -0.09847
       5     C     3.06168  3.06168  0.00000 -0.12336
       6     C     3.07912  3.07912  0.00000 -0.15824
       7     C     2.77889  2.77889  0.00000  0.44222
       8     H     0.41305  0.41305  0.00000  0.17390
       9     H     0.40254  0.40254  0.00000  0.19491
      10     H     0.40025  0.40025  0.00000  0.19949
      11     H     0.40268  0.40268  0.00000  0.19464
      12     H     0.41891  0.41891  0.00000  0.16217
      13     N     3.86689  3.86689  0.00000 -0.73378
      14     N     3.83199  3.83199  0.00000 -0.66398
      15     H     0.29575  0.29575  0.00000  0.40849
      16     H     0.30074  0.30074  0.00000  0.39852
      17     H     0.30535  0.30535  0.00000  0.38931
      18     H     0.31407  0.31407  0.00000  0.37186

   Total alpha = 32.00000, Total beta = 32.00000, Total charge =  1.00000

*** Psi4 exiting successfully. Buy a developer a beer!
