                               Psi4 1.1 release

  ==> Input File <==

--------------------------------------------------------------------------
set {
	reference rks
	basis 6-31G*
}

set_num_threads( 8 )
memory 2 gb

molecule MOL {
1 1

C	 -0.000000	 -0.000000	 -0.191992
C	 0.036677	 1.219374	 0.510038
C	 0.031764	 1.213120	 1.901317
C	 0.000000	 0.000000	 2.595980
C	 -0.031764	 -1.213120	 1.901317
C	 -0.036678	 -1.219374	 0.510038
C	 -0.000000	 0.000000	 -1.658861
H	 0.018170	 2.164705	 -0.024980
H	 0.042402	 2.152895	 2.443759
H	 0.000000	 0.000000	 3.681629
H	 -0.042401	 -2.152895	 2.443759
H	 -0.018170	 -2.164705	 -0.024980
N	 -0.712589	 -0.905950	 -2.322588
N	 0.712590	 0.905950	 -2.322588
H	 0.673432	 1.006470	 -3.330124
H	 1.377190	 1.485970	 -1.827444
H	 -1.377189	 -1.485970	 -1.827444
H	 -0.673431	 -1.006470	 -3.330124

	symmetry c1
}
set optking { dynamic_level = 1 }
ee,wfn = energy('b3lyp-d3', return_wfn=True)
oeprop( wfn, 'DIPOLE', 'QUADRUPOLE', 'MULLIKEN_CHARGES')
oeprop( wfn, 'GRID_ESP')
f=open( 'psi4out.xyz', 'w' )
f.write( "18  " )
f.write( str(ee) + "\n" )
f.write( MOL.save_string_xyz() )
f.close()
--------------------------------------------------------------------------

    Molecular point group: c1

    Geometry (in Angstrom), charge = 1, multiplicity = 1:

       Center              X                  Y                   Z               Mass
    ------------   -----------------  -----------------  -----------------  -----------------
           C         -0.000000041515    -0.000000000000    -0.191639316978    12.000000000000
           C          0.036676958485     1.219374000000     0.510390683022    12.000000000000
           C          0.031763958485     1.213120000000     1.901669683022    12.000000000000
           C         -0.000000041515    -0.000000000000     2.596332683022    12.000000000000
           C         -0.031764041515    -1.213120000000     1.901669683022    12.000000000000
           C         -0.036678041515    -1.219374000000     0.510390683022    12.000000000000
           C         -0.000000041515    -0.000000000000    -1.658508316978    12.000000000000
           H          0.018169958485     2.164705000000    -0.024627316978     1.007825032070
           H          0.042401958485     2.152895000000     2.444111683022     1.007825032070
           H         -0.000000041515    -0.000000000000     3.681981683022     1.007825032070
           H         -0.042401041515    -2.152895000000     2.444111683022     1.007825032070
           H         -0.018170041515    -2.164705000000    -0.024627316978     1.007825032070
           N         -0.712589041515    -0.905950000000    -2.322235316978    14.003074004780
           N          0.712589958485     0.905950000000    -2.322235316978    14.003074004780
           H          0.673431958485     1.006470000000    -3.329771316978     1.007825032070
           H          1.377189958485     1.485970000000    -1.827091316978     1.007825032070
           H         -1.377189041515    -1.485970000000    -1.827091316978     1.007825032070
           H         -0.673431041515    -1.006470000000    -3.329771316978     1.007825032070

  Charge       = 1
  Multiplicity = 1
  Basis Set: 6-31G*
    Blend: 6-31G*
   => B3LYP Composite Functional <=
  Basis Set: (6-31G* AUX)
    Blend: CC-PVDZ-JKFIT

    Orbital Energies (a.u.)
    -----------------------

    Doubly Occupied:

       1A    -14.568044     2A    -14.568036     3A    -10.497179
       4A    -10.373176     5A    -10.356122     6A    -10.356113
       7A    -10.342964     8A    -10.340403     9A    -10.340347
      10A     -1.183829    11A     -1.091958    12A     -1.014244
      13A     -0.926589    14A     -0.902174    15A     -0.845401
      16A     -0.785712    17A     -0.773382    18A     -0.741668
      19A     -0.732897    20A     -0.688868    21A     -0.669057
      22A     -0.625497    23A     -0.617234    24A     -0.586922
      25A     -0.579015    26A     -0.572821    27A     -0.518317
      28A     -0.505465    29A     -0.498054    30A     -0.472891
      31A     -0.411668    32A     -0.405683

  @DF-RKS Final Energy:  -381.47050945886377

   => Energetics <=

    Nuclear Repulsion Energy =            416.9186154297642020
    One-Electron Energy =               -1329.0469430788637055
    Two-Electron Energy =                 575.0757145102827508
    DFT Exchange-Correlation Energy =     -44.4059642000471726
    Empirical Dispersion Energy =          -0.0119321200000000
    PCM Polarization Energy =               0.0000000000000000
    EFP Energy =                            0.0000000000000000
    Total Energy =                       -381.4705094588638303

  Mulliken Charges: (a.u.)
   Center  Symbol    Alpha    Beta     Spin     Total
       1     C     2.95717  2.95717  0.00000  0.08565
       2     C     3.08207  3.08207  0.00000 -0.16415
       3     C     3.06249  3.06249  0.00000 -0.12497
       4     C     3.05147  3.05147  0.00000 -0.10295
       5     C     3.06249  3.06249  0.00000 -0.12498
       6     C     3.08208  3.08208  0.00000 -0.16415
       7     C     2.72192  2.72192  0.00000  0.55615
       8     H     0.41420  0.41420  0.00000  0.17159
       9     H     0.40544  0.40544  0.00000  0.18911
      10     H     0.40389  0.40389  0.00000  0.19223
      11     H     0.40544  0.40544  0.00000  0.18911
      12     H     0.41420  0.41420  0.00000  0.17160
      13     N     3.86323  3.86323  0.00000 -0.72645
      14     N     3.86323  3.86323  0.00000 -0.72645
      15     H     0.30570  0.30570  0.00000  0.38861
      16     H     0.29964  0.29964  0.00000  0.40072
      17     H     0.29964  0.29964  0.00000  0.40072
      18     H     0.30570  0.30570  0.00000  0.38861

   Total alpha = 32.00000, Total beta = 32.00000, Total charge =  1.00000

*** Psi4 exiting successfully. Buy a developer a beer!
