                               Psi4 1.1 release

  ==> Input File <==

--------------------------------------------------------------------------
set_num_threads(1)
set_memory(4203741184)

set { reference rks }
set { basis cc-pVDZ }

molecule MOL {
    0 1
    noreorient
    nocom
    symmetry c1
    O    1.050400   0.042900  -0.048100
    C    2.474100   0.047400  -0.029000
    C    3.002600  -1.068900  -0.932000
    N    4.462700  -1.072400  -1.006800
    H    0.760400   0.728400   0.578000
    H    2.809900  -0.097900   1.003200
    H    2.817400   1.026800  -0.378600
    H    2.581000  -0.963300  -1.938400
    H    2.653800  -2.036400  -0.553400
    H    4.774576  -1.921715  -1.476777
    H    4.839531  -1.123002  -0.060392
}

set optking { frozen_dihedral = (" 2 3 4 10 ") }

energy, wfn = energy('B3LYP-D3', return_wfn=True)

import os
os.chdir(os.environ['HTMD_PSI4_WORKDIR'])

oeprop(wfn, 'DIPOLE', 'QUADRUPOLE', 'MULLIKEN_CHARGES')

with open('psi4out.xyz', 'w') as f:
    f.write('11 ' )
    f.write('%.12f\n' % energy)
    f.write(MOL.save_string_xyz())
--------------------------------------------------------------------------

    Molecular point group: c1

    Geometry (in Angstrom), charge = 0, multiplicity = 1:

       Center              X                  Y                   Z               Mass
    ------------   -----------------  -----------------  -----------------  -----------------
           O          1.050400000000     0.042900000000    -0.048100000000    15.994914619560
           C          2.474100000000     0.047400000000    -0.029000000000    12.000000000000
           C          3.002600000000    -1.068900000000    -0.932000000000    12.000000000000
           N          4.462700000000    -1.072400000000    -1.006800000000    14.003074004780
           H          0.760400000000     0.728400000000     0.578000000000     1.007825032070
           H          2.809900000000    -0.097900000000     1.003200000000     1.007825032070
           H          2.817400000000     1.026800000000    -0.378600000000     1.007825032070
           H          2.581000000000    -0.963300000000    -1.938400000000     1.007825032070
           H          2.653800000000    -2.036400000000    -0.553400000000     1.007825032070
           H          4.774576000000    -1.921715000000    -1.476777000000     1.007825032070
           H          4.839531000000    -1.123002000000    -0.060392000000     1.007825032070

  Charge       = 0
  Multiplicity = 1
  Basis Set: CC-PVDZ
    Blend: CC-PVDZ
   => B3LYP Composite Functional <=
  Basis Set: (CC-PVDZ AUX)
    Blend: CC-PVDZ-JKFIT

    Orbital Energies (a.u.)
    -----------------------

    Doubly Occupied:

       1A    -19.128231     2A    -14.304479     3A    -10.225743
       4A    -10.201692     5A     -1.010586     6A     -0.876867
       7A     -0.712555     8A     -0.598581     9A     -0.507329
      10A     -0.480661    11A     -0.463024    12A     -0.411026
      13A     -0.386201    14A     -0.369348    15A     -0.323766
      16A     -0.261736    17A     -0.229966

  @DF-RKS Final Energy:  -210.39065376719711

   => Energetics <=

    Nuclear Repulsion Energy =            130.4729935335152788
    One-Electron Energy =                -543.8616237552821531
    Two-Electron Energy =                 226.4893916873104160
    DFT Exchange-Correlation Energy =     -23.4864789827406355
    Empirical Dispersion Energy =          -0.0049362500000000
    PCM Polarization Energy =               0.0000000000000000
    EFP Energy =                            0.0000000000000000
    Total Energy =                       -210.3906537671971080

  Mulliken Charges: (a.u.)
   Center  Symbol    Alpha    Beta     Spin     Total
       1     O     4.13869  4.13869  0.00000 -0.27739
       2     C     2.93302  2.93302  0.00000  0.13397
       3     C     2.98170  2.98170  0.00000  0.03661
       4     N     3.59338  3.59338  0.00000 -0.18675
       5     H     0.42980  0.42980  0.00000  0.14041
       6     H     0.50429  0.50429  0.00000 -0.00858
       7     H     0.49762  0.49762  0.00000  0.00476
       8     H     0.48925  0.48925  0.00000  0.02150
       9     H     0.50170  0.50170  0.00000 -0.00340
      10     H     0.46342  0.46342  0.00000  0.07316
      11     H     0.46714  0.46714  0.00000  0.06572

   Total alpha = 17.00000, Total beta = 17.00000, Total charge =  0.00000

*** Psi4 exiting successfully. Buy a developer a beer!
