                               Psi4 1.1 release

  ==> Input File <==

--------------------------------------------------------------------------
set_num_threads( 8 )
memory 2.000000 gb

set { reference rks }
set { basis cc-pVDZ }

molecule MOL {
    0 1
    noreorient
    nocom
    symmetry c1
    O    1.050400   0.042900  -0.048100
    C    2.474100   0.047400  -0.029000
    C    3.002600  -1.068900  -0.932000
    N    4.462700  -1.072400  -1.006800
    H    0.760400   0.728400   0.578000
    H    2.809900  -0.097900   1.003200
    H    2.817400   1.026800  -0.378600
    H    2.581000  -0.963300  -1.938400
    H    2.653800  -2.036400  -0.553400
    H    4.750532  -1.104802  -1.984340
    H    4.810715  -1.933328  -0.584971
}

set optking { frozen_dihedral = (" 2 3 4 10 ") }

energy, wfn = energy('B3LYP-D3', return_wfn=True)

import os
os.chdir(os.environ['HTMD_PSI4_WORKDIR'])

oeprop(wfn, 'DIPOLE', 'QUADRUPOLE', 'MULLIKEN_CHARGES')

with open('psi4out.xyz', 'w') as f:
    f.write('11 ' )
    f.write('%.12f\n' % energy)
    f.write(MOL.save_string_xyz())
--------------------------------------------------------------------------

    Molecular point group: c1

    Geometry (in Angstrom), charge = 0, multiplicity = 1:

       Center              X                  Y                   Z               Mass
    ------------   -----------------  -----------------  -----------------  -----------------
           O          1.050400000000     0.042900000000    -0.048100000000    15.994914619560
           C          2.474100000000     0.047400000000    -0.029000000000    12.000000000000
           C          3.002600000000    -1.068900000000    -0.932000000000    12.000000000000
           N          4.462700000000    -1.072400000000    -1.006800000000    14.003074004780
           H          0.760400000000     0.728400000000     0.578000000000     1.007825032070
           H          2.809900000000    -0.097900000000     1.003200000000     1.007825032070
           H          2.817400000000     1.026800000000    -0.378600000000     1.007825032070
           H          2.581000000000    -0.963300000000    -1.938400000000     1.007825032070
           H          2.653800000000    -2.036400000000    -0.553400000000     1.007825032070
           H          4.750532000000    -1.104802000000    -1.984340000000     1.007825032070
           H          4.810715000000    -1.933328000000    -0.584971000000     1.007825032070

  Charge       = 0
  Multiplicity = 1
  Basis Set: CC-PVDZ
    Blend: CC-PVDZ
   => B3LYP Composite Functional <=
  Basis Set: (CC-PVDZ AUX)
    Blend: CC-PVDZ-JKFIT

    Orbital Energies (a.u.)
    -----------------------

    Doubly Occupied:

       1A    -19.122414     2A    -14.306082     3A    -10.216144
       4A    -10.201591     5A     -1.004848     6A     -0.877023
       7A     -0.709879     8A     -0.591477     9A     -0.502300
      10A     -0.495998    11A     -0.437019    12A     -0.423888
      13A     -0.393263    14A     -0.345567    15A     -0.324128
      16A     -0.255954    17A     -0.235482

  @DF-RKS Final Energy:  -210.38980657673102

   => Energetics <=

    Nuclear Repulsion Energy =            130.2431103557768211
    One-Electron Energy =                -543.4977798581248862
    Two-Electron Energy =                 226.3567066685245663
    DFT Exchange-Correlation Energy =     -23.4871697829075217
    Empirical Dispersion Energy =          -0.0046739600000000
    PCM Polarization Energy =               0.0000000000000000
    EFP Energy =                            0.0000000000000000
    Total Energy =                       -210.3898065767310186

  Mulliken Charges: (a.u.)
   Center  Symbol    Alpha    Beta     Spin     Total
       1     O     4.14141  4.14141  0.00000 -0.28283
       2     C     2.92024  2.92024  0.00000  0.15951
       3     C     2.99844  2.99844  0.00000  0.00311
       4     N     3.58723  3.58723  0.00000 -0.17446
       5     H     0.43030  0.43030  0.00000  0.13940
       6     H     0.50385  0.50385  0.00000 -0.00771
       7     H     0.50234  0.50234  0.00000 -0.00468
       8     H     0.49322  0.49322  0.00000  0.01355
       9     H     0.49599  0.49599  0.00000  0.00802
      10     H     0.46325  0.46325  0.00000  0.07349
      11     H     0.46371  0.46371  0.00000  0.07259

   Total alpha = 17.00000, Total beta = 17.00000, Total charge = -0.00000

*** Psi4 exiting successfully. Buy a developer a beer!
