                               Psi4 1.1 release

  ==> Input File <==

--------------------------------------------------------------------------
set_num_threads(1)
set_memory(4203741184)

set { reference rks }
set { basis cc-pVDZ }

molecule MOL {
    0 1
    noreorient
    nocom
    symmetry c1
    O    1.141000   0.017000   0.083000
    C    2.558000   0.086000  -0.005000
    C    3.192000  -0.789000   1.067000
    O    4.610000  -0.719000   0.979000
    H    0.792959   0.307477  -0.777774
    H    2.874000   1.128000   0.115000
    H    2.871000  -0.243000  -1.001000
    H    2.876000  -1.830000   0.947000
    H    2.879000  -0.459000   2.064000
    H    4.961000  -1.293000   1.682000
}

set optking { frozen_dihedral = (" 3 2 1 5 ") }

energy, wfn = energy('B3LYP-D3', return_wfn=True)

import os
os.chdir(os.environ['HTMD_PSI4_WORKDIR'])

oeprop(wfn, 'DIPOLE', 'QUADRUPOLE', 'MULLIKEN_CHARGES')

with open('psi4out.xyz', 'w') as f:
    f.write('10 ' )
    f.write('%.12f\n' % energy)
    f.write(MOL.save_string_xyz())
--------------------------------------------------------------------------

    Molecular point group: c1

    Geometry (in Angstrom), charge = 0, multiplicity = 1:

       Center              X                  Y                   Z               Mass
    ------------   -----------------  -----------------  -----------------  -----------------
           O          1.141000000000     0.017000000000     0.083000000000    15.994914619560
           C          2.558000000000     0.086000000000    -0.005000000000    12.000000000000
           C          3.192000000000    -0.789000000000     1.067000000000    12.000000000000
           O          4.610000000000    -0.719000000000     0.979000000000    15.994914619560
           H          0.792959000000     0.307477000000    -0.777774000000     1.007825032070
           H          2.874000000000     1.128000000000     0.115000000000     1.007825032070
           H          2.871000000000    -0.243000000000    -1.001000000000     1.007825032070
           H          2.876000000000    -1.830000000000     0.947000000000     1.007825032070
           H          2.879000000000    -0.459000000000     2.064000000000     1.007825032070
           H          4.961000000000    -1.293000000000     1.682000000000     1.007825032070

  Charge       = 0
  Multiplicity = 1
  Basis Set: CC-PVDZ
    Blend: CC-PVDZ
   => B3LYP Composite Functional <=
  Basis Set: (CC-PVDZ AUX)
    Blend: CC-PVDZ-JKFIT

    Orbital Energies (a.u.)
    -----------------------

    Doubly Occupied:

       1A    -19.131833     2A    -19.131444     3A    -10.226309
       4A    -10.225816     5A     -1.018881     6A     -1.008576
       7A     -0.732109     8A     -0.603930     9A     -0.526025
      10A     -0.483167    11A     -0.470140    12A     -0.413301
      13A     -0.395196    14A     -0.348790    15A     -0.319612
      16A     -0.264512    17A     -0.263540

  @DF-RKS Final Energy:  -230.25712179351461

   => Energetics <=

    Nuclear Repulsion Energy =            129.4555460626659169
    One-Electron Energy =                -570.6661240771768462
    Two-Electron Energy =                 235.4967307126868263
    DFT Exchange-Correlation Energy =     -24.5388636216905205
    Empirical Dispersion Energy =          -0.0044108700000000
    PCM Polarization Energy =               0.0000000000000000
    EFP Energy =                            0.0000000000000000
    Total Energy =                       -230.2571217935146137

  Mulliken Charges: (a.u.)
   Center  Symbol    Alpha    Beta     Spin     Total
       1     O     4.14036  4.14036  0.00000 -0.28071
       2     C     2.93653  2.93653  0.00000  0.12694
       3     C     2.93620  2.93620  0.00000  0.12760
       4     O     4.14076  4.14076  0.00000 -0.28152
       5     H     0.42713  0.42713  0.00000  0.14574
       6     H     0.49689  0.49689  0.00000  0.00623
       7     H     0.49821  0.49821  0.00000  0.00359
       8     H     0.49925  0.49925  0.00000  0.00150
       9     H     0.49733  0.49733  0.00000  0.00535
      10     H     0.42736  0.42736  0.00000  0.14529

   Total alpha = 17.00000, Total beta = 17.00000, Total charge =  0.00000

*** Psi4 exiting successfully. Buy a developer a beer!
