                               Psi4 1.1 release

  ==> Input File <==

--------------------------------------------------------------------------
set_num_threads(1)
set_memory(3145728000)

set { reference rks }
set { basis 6-31G* }

molecule MOL {
    1 1
    noreorient
    nocom
    symmetry c1
    C    0.000000   0.000000  -0.177864
    C    0.036678   1.219374   0.524165
    C    0.031764   1.213119   1.915444
    C   -0.000000  -0.000000   2.610107
    C   -0.031764  -1.213119   1.915444
    C   -0.036677  -1.219374   0.524165
    C    0.000000  -0.000000  -1.644734
    H    0.018170   2.164705  -0.010853
    H    0.042402   2.152895   2.457886
    H   -0.000000  -0.000000   3.695756
    H   -0.042402  -2.152895   2.457886
    H   -0.018170  -2.164705  -0.010853
    N    1.070765  -0.426605  -2.308461
    N   -1.070765   0.426604  -2.308461
    H   -1.156065   0.360562  -3.315997
    H   -1.815363   0.899563  -1.813317
    H    1.815363  -0.899563  -1.813317
    H    1.156065  -0.360563  -3.315997
}

set optking { frozen_dihedral = (" 2 1 7 13 ") }

set optking { dynamic_level = 1
 geom_maxiter = 250
 print_trajectory_xyz_file = True }

energy, wfn = optimize('B3LYP-D3', return_wfn=True)

import os
os.chdir(os.environ['HTMD_PSI4_WORKDIR'])

oeprop(wfn, 'DIPOLE', 'QUADRUPOLE', 'MULLIKEN_CHARGES')

with open('psi4out.xyz', 'w') as f:
    f.write('18 ' )
    f.write('%.12f\n' % energy)
    f.write(MOL.save_string_xyz())
--------------------------------------------------------------------------

    Molecular point group: c1
  Charge       = 1
  Multiplicity = 1
  Basis Set: 6-31G*
    Blend: 6-31G*
   => B3LYP Composite Functional <=
  Basis Set: (6-31G* AUX)
    Blend: CC-PVDZ-JKFIT
  @DF-RKS Final Energy:  -381.46261572784397
    Total Energy =                       -381.4626157278440246
    Molecular point group: c1
  Basis Set: 6-31G*
    Blend: 6-31G*
  Basis Set: (6-31G* AUX)
    Blend: CC-PVDZ-JKFIT
   => B3LYP Composite Functional <=
  Basis Set: 6-31G*
    Blend: 6-31G*
   => B3LYP Composite Functional <=
  Basis Set: (6-31G* AUX)
    Blend: CC-PVDZ-JKFIT
  @DF-RKS Final Energy:  -381.46544619749585
    Total Energy =                       -381.4654461974959077
  Basis Set: 6-31G*
    Blend: 6-31G*
  Basis Set: (6-31G* AUX)
  @DF-RKS Final Energy:  -381.46620566763062
    Total Energy =                       -381.4662056676306179
  @DF-RKS Final Energy:  -381.46629552212761
    Total Energy =                       -381.4662955221276093
   => B3LYP Composite Functional <=
  Basis Set: (6-31G* AUX)
    Blend: CC-PVDZ-JKFIT
  @DF-RKS Final Energy:  -381.46630349799619
    Total Energy =                       -381.4663034979962504
  Basis Set: 6-31G*
    Blend: 6-31G*
  Basis Set: (6-31G* AUX)
    Blend: CC-PVDZ-JKFIT
   => B3LYP Composite Functional <=
  Charge       = 1
  Multiplicity = 1
  Basis Set: 6-31G*
    Blend: 6-31G*
   => B3LYP Composite Functional <=
  Basis Set: (6-31G* AUX)
    Blend: CC-PVDZ-JKFIT

    Orbital Energies (a.u.)
    -----------------------

    Doubly Occupied:

       1A    -14.574006     2A    -14.573996     3A    -10.501114
       4A    -10.369235     5A    -10.351000     6A    -10.350336
       7A    -10.335912     8A    -10.335372     9A    -10.335099
      10A     -1.188617    11A     -1.097666    12A     -1.010227
      13A     -0.923172    14A     -0.896873    15A     -0.845158
      16A     -0.787377    17A     -0.767652    18A     -0.751710
      19A     -0.728968    20A     -0.690584    21A     -0.667594
      22A     -0.622523    23A     -0.617996    24A     -0.579103
      25A     -0.574550    26A     -0.568638    27A     -0.516531
      28A     -0.498773    29A     -0.493205    30A     -0.477962
      31A     -0.406555    32A     -0.400226

  @DF-RKS Final Energy:  -381.46630518444658

   => Energetics <=

    Nuclear Repulsion Energy =            416.5343205295711755
    One-Electron Energy =               -1328.3791728042347131
    Two-Electron Energy =                 574.7948111912896820
    DFT Exchange-Correlation Energy =     -44.4044559610726708
    Empirical Dispersion Energy =          -0.0118081400000000
    PCM Polarization Energy =               0.0000000000000000
    EFP Energy =                            0.0000000000000000
    Total Energy =                       -381.4663051844465258
    Molecular point group: c1
  Basis Set: 6-31G*
    Blend: 6-31G*
  Basis Set: (6-31G* AUX)
    Blend: CC-PVDZ-JKFIT
   => B3LYP Composite Functional <=

  -Total Gradient:
     Atom            X                  Y                   Z
    ------   -----------------  -----------------  -----------------
       1       -0.005894724565     0.002365811281    -0.000117307417
       2        0.004681119959    -0.000256521608     0.000093312216
       3       -0.000038421758     0.000004615109     0.000005913336
       4        0.000009541819     0.000005478473    -0.000008725492
       5        0.000031986116    -0.000010716437    -0.000000546148
       6       -0.000068836935    -0.000008522093    -0.000031620201
       7       -0.000626938242    -0.006618882125    -0.000053848263
       8       -0.000020214915     0.000000651356     0.000006338679
       9        0.000000569906     0.000000222183    -0.000000279337
      10       -0.000001167656     0.000001889596     0.000002175273
      11       -0.000002684668     0.000001350206     0.000001360640
      12        0.000017641955    -0.000001873632     0.000002997733
      13        0.001879891111     0.004509575529     0.000082304560
      14       -0.000007498701    -0.000024618674     0.000046356609
      15        0.000001597193     0.000018418253     0.000007695325
      16       -0.000000210639     0.000017296132    -0.000023177012
      17        0.000021909792    -0.000000911014    -0.000004636705
      18        0.000001181277    -0.000002729295    -0.000002223086

  **** Optimization is complete! (in 6 steps) ****
    Final optimized geometry and variables:
    Molecular point group: c1

    Geometry (in Angstrom), charge = 1, multiplicity = 1:

    C           -0.071961850018    -0.016121352513    -0.175739103821
    C           -0.027919023375     1.209324335494     0.507424562977
    C            0.021282626615     1.208435670504     1.900113751811
    C            0.029591442767    -0.000896538995     2.600560546062
    C            0.002120239026    -1.218418159769     1.914214660222
    C           -0.029774545347    -1.233743918937     0.521375256507
    C           -0.031069733049    -0.016806610369    -1.653281951732
    H           -0.022931512991     2.146021416985    -0.042745077523
    H            0.060066707326     2.151085736128     2.436524110935
    H            0.063303133863     0.005248922410     3.685652074028
    H            0.009136732761    -2.155060779541     2.462339746227
    H           -0.049483674552    -2.176775233767    -0.017785995570
    N            1.052387974358    -0.468292655051    -2.268680473446
    N           -1.045802193829     0.501841932056    -2.329823103973
    H           -1.047935715575     0.613214044448    -3.338183344356
    H           -1.877432644035     0.789522596003    -1.829168723526
    H            1.835020130183    -0.793131294312    -1.714574048805
    H            1.131402905874    -0.545450110776    -3.277223886017

  Mulliken Charges: (a.u.)
   Center  Symbol    Alpha    Beta     Spin     Total
       1     C     2.98551  2.98551  0.00000  0.02898
       2     C     3.07113  3.07113  0.00000 -0.14227
       3     C     3.06231  3.06231  0.00000 -0.12463
       4     C     3.05303  3.05303  0.00000 -0.10606
       5     C     3.06305  3.06305  0.00000 -0.12610
       6     C     3.07564  3.07564  0.00000 -0.15129
       7     C     2.74206  2.74206  0.00000  0.51588
       8     H     0.41332  0.41332  0.00000  0.17337
       9     H     0.40678  0.40678  0.00000  0.18645
      10     H     0.40596  0.40596  0.00000  0.18808
      11     H     0.40681  0.40681  0.00000  0.18639
      12     H     0.41356  0.41356  0.00000  0.17288
      13     N     3.84776  3.84776  0.00000 -0.69552
      14     N     3.84962  3.84962  0.00000 -0.69924
      15     H     0.30529  0.30529  0.00000  0.38942
      16     H     0.29638  0.29638  0.00000  0.40723
      17     H     0.29650  0.29650  0.00000  0.40699
      18     H     0.30528  0.30528  0.00000  0.38944

   Total alpha = 32.00000, Total beta = 32.00000, Total charge =  1.00000

*** Psi4 exiting successfully. Buy a developer a beer!
