                               Psi4 1.1 release

  ==> Input File <==

--------------------------------------------------------------------------
set_num_threads(1)
set_memory(4203741184)

set { reference rks }
set { basis cc-pVDZ }

molecule MOL {
    0 1
    noreorient
    nocom
    symmetry c1
    O    1.141000   0.017000   0.083000
    C    2.558000   0.086000  -0.005000
    C    3.192000  -0.789000   1.067000
    O    4.610000  -0.719000   0.979000
    H    0.888632   0.481844   0.899500
    H    2.874000   1.128000   0.115000
    H    2.871000  -0.243000  -1.001000
    H    2.876000  -1.830000   0.947000
    H    2.879000  -0.459000   2.064000
    H    4.961000  -1.293000   1.682000
}

set optking { frozen_dihedral = (" 3 2 1 5 ") }

energy, wfn = energy('B3LYP-D3', return_wfn=True)

import os
os.chdir(os.environ['HTMD_PSI4_WORKDIR'])

oeprop(wfn, 'DIPOLE', 'QUADRUPOLE', 'MULLIKEN_CHARGES')

with open('psi4out.xyz', 'w') as f:
    f.write('10 ' )
    f.write('%.12f\n' % energy)
    f.write(MOL.save_string_xyz())
--------------------------------------------------------------------------

    Molecular point group: c1

    Geometry (in Angstrom), charge = 0, multiplicity = 1:

       Center              X                  Y                   Z               Mass
    ------------   -----------------  -----------------  -----------------  -----------------
           O          1.141000000000     0.017000000000     0.083000000000    15.994914619560
           C          2.558000000000     0.086000000000    -0.005000000000    12.000000000000
           C          3.192000000000    -0.789000000000     1.067000000000    12.000000000000
           O          4.610000000000    -0.719000000000     0.979000000000    15.994914619560
           H          0.888632000000     0.481844000000     0.899500000000     1.007825032070
           H          2.874000000000     1.128000000000     0.115000000000     1.007825032070
           H          2.871000000000    -0.243000000000    -1.001000000000     1.007825032070
           H          2.876000000000    -1.830000000000     0.947000000000     1.007825032070
           H          2.879000000000    -0.459000000000     2.064000000000     1.007825032070
           H          4.961000000000    -1.293000000000     1.682000000000     1.007825032070

  Charge       = 0
  Multiplicity = 1
  Basis Set: CC-PVDZ
    Blend: CC-PVDZ
   => B3LYP Composite Functional <=
  Basis Set: (CC-PVDZ AUX)
    Blend: CC-PVDZ-JKFIT

    Orbital Energies (a.u.)
    -----------------------

    Doubly Occupied:

       1A    -19.135197     2A    -19.133285     3A    -10.227499
       4A    -10.227228     5A     -1.021904     6A     -1.010590
       7A     -0.731355     8A     -0.615760     9A     -0.520165
      10A     -0.495468    11A     -0.453457    12A     -0.430015
      13A     -0.397942    14A     -0.342667    15A     -0.325072
      16A     -0.269765    17A     -0.266778

  @DF-RKS Final Energy:  -230.25881610959399

   => Energetics <=

    Nuclear Repulsion Energy =            129.8356726194071484
    One-Electron Energy =                -571.3480380112501962
    Two-Electron Energy =                 235.7962822571220158
    DFT Exchange-Correlation Energy =     -24.5380901948729466
    Empirical Dispersion Energy =          -0.0046427800000000
    PCM Polarization Energy =               0.0000000000000000
    EFP Energy =                            0.0000000000000000
    Total Energy =                       -230.2588161095939938

  Mulliken Charges: (a.u.)
   Center  Symbol    Alpha    Beta     Spin     Total
       1     O     4.13903  4.13903  0.00000 -0.27806
       2     C     2.92923  2.92923  0.00000  0.14154
       3     C     2.94391  2.94391  0.00000  0.11218
       4     O     4.14015  4.14015  0.00000 -0.28030
       5     H     0.43068  0.43068  0.00000  0.13863
       6     H     0.49707  0.49707  0.00000  0.00586
       7     H     0.48585  0.48585  0.00000  0.02830
       8     H     0.49792  0.49792  0.00000  0.00416
       9     H     0.50803  0.50803  0.00000 -0.01606
      10     H     0.42812  0.42812  0.00000  0.14375

   Total alpha = 17.00000, Total beta = 17.00000, Total charge =  0.00000

*** Psi4 exiting successfully. Buy a developer a beer!
