                               Psi4 1.1 release

  ==> Input File <==

--------------------------------------------------------------------------
set {
	reference rks
	basis cc-pvdz
}

set_num_threads( 8 )
memory 2 gb

molecule MOL {
0 1

O	 1.014300	 -0.002300	 0.060500
O	 2.462400	 -0.107500	 -0.002400
H	 0.984788	 0.835146	 0.561314
H	 2.655500	 0.713700	 0.488700

	symmetry c1
}
set optking { dynamic_level = 1 }
set optking {
	frozen_dihedral = ("
		3 1 2 4
	")
}

ee,wfn = energy('b3lyp-d3', return_wfn=True)
oeprop( wfn, 'DIPOLE', 'QUADRUPOLE', 'MULLIKEN_CHARGES')
f=open( 'psi4out.xyz', 'w' )
f.write( "4  " )
f.write( str(ee) + "\n" )
f.write( MOL.save_string_xyz() )
f.close()
--------------------------------------------------------------------------

    Molecular point group: c1

    Geometry (in Angstrom), charge = 0, multiplicity = 1:

       Center              X                  Y                   Z               Mass
    ------------   -----------------  -----------------  -----------------  -----------------
           O         -0.728898279887     0.003442482083     0.002052509380    15.994914619560
           O          0.719201720113    -0.101757517917    -0.060847490620    15.994914619560
           H         -0.758410279887     0.840888482083     0.502866509380     1.007825032070
           H          0.912301720113     0.719442482083     0.430252509380     1.007825032070

  Charge       = 0
  Multiplicity = 1
  Basis Set: CC-PVDZ
    Blend: CC-PVDZ
   => B3LYP Composite Functional <=
  Basis Set: (CC-PVDZ AUX)
    Blend: CC-PVDZ-JKFIT

    Orbital Energies (a.u.)
    -----------------------

    Doubly Occupied:

       1A    -19.192010     2A    -19.191982     3A     -1.122363
       4A     -0.887508     5A     -0.562863     6A     -0.428579
       7A     -0.394501     8A     -0.382292     9A     -0.246746

  @DF-RKS Final Energy:  -151.53343242392967

   => Energetics <=

    Nuclear Repulsion Energy =             36.8919975159773159
    One-Electron Energy =                -281.6482575858534005
    Two-Electron Energy =                 107.6863695630369477
    DFT Exchange-Correlation Energy =     -14.4633652170905247
    Empirical Dispersion Energy =          -0.0001767000000000
    PCM Polarization Energy =               0.0000000000000000
    EFP Energy =                            0.0000000000000000
    Total Energy =                       -151.5334324239296393

  Mulliken Charges: (a.u.)
   Center  Symbol    Alpha    Beta     Spin     Total
       1     O     4.07798  4.07798  0.00000 -0.15596
       2     O     4.07796  4.07796  0.00000 -0.15592
       3     H     0.42202  0.42202  0.00000  0.15596
       4     H     0.42204  0.42204  0.00000  0.15593

   Total alpha =  9.00000, Total beta =  9.00000, Total charge = -0.00000

*** Psi4 exiting successfully. Buy a developer a beer!
