                               Psi4 1.1 release

  ==> Input File <==

--------------------------------------------------------------------------
set_num_threads(1)
set_memory(3145728000)

set { reference rks }
set { basis 6-31G* }

molecule MOL {
    1 1
    noreorient
    nocom
    symmetry c1
    C    0.000000   0.000000  -0.177864
    C    0.036678   1.219374   0.524165
    C    0.031764   1.213119   1.915444
    C   -0.000000  -0.000000   2.610107
    C   -0.031764  -1.213119   1.915444
    C   -0.036677  -1.219374   0.524165
    C    0.000000  -0.000000  -1.644734
    H    0.018170   2.164705  -0.010853
    H    0.042402   2.152895   2.457886
    H   -0.000000  -0.000000   3.695756
    H   -0.042402  -2.152895   2.457886
    H   -0.018170  -2.164705  -0.010853
    N    1.015073   0.546037  -2.308461
    N   -1.015072  -0.546038  -2.308460
    H   -1.019311  -0.653832  -3.315997
    H   -1.855998  -0.812421  -1.813316
    H    1.855998   0.812421  -1.813317
    H    1.019311   0.653831  -3.315997
}

set optking { frozen_dihedral = (" 2 1 7 13 ") }

set optking { dynamic_level = 1
 geom_maxiter = 250
 print_trajectory_xyz_file = True }

energy, wfn = optimize('B3LYP-D3', return_wfn=True)

import os
os.chdir(os.environ['HTMD_PSI4_WORKDIR'])

oeprop(wfn, 'DIPOLE', 'QUADRUPOLE', 'MULLIKEN_CHARGES')

with open('psi4out.xyz', 'w') as f:
    f.write('18 ' )
    f.write('%.12f\n' % energy)
    f.write(MOL.save_string_xyz())
--------------------------------------------------------------------------

    Molecular point group: c1
  Charge       = 1
  Multiplicity = 1
  Basis Set: 6-31G*
    Blend: 6-31G*
   => B3LYP Composite Functional <=
  Basis Set: (6-31G* AUX)
    Blend: CC-PVDZ-JKFIT
  @DF-RKS Final Energy:  -381.46715412497679
    Total Energy =                       -381.4671541249768438
    Molecular point group: c1
  Basis Set: 6-31G*
    Blend: 6-31G*
  Basis Set: (6-31G* AUX)
    Blend: CC-PVDZ-JKFIT
   => B3LYP Composite Functional <=
  Basis Set: 6-31G*
    Blend: 6-31G*
   => B3LYP Composite Functional <=
  Basis Set: (6-31G* AUX)
    Blend: CC-PVDZ-JKFIT
  @DF-RKS Final Energy:  -381.46794275852636
    Total Energy =                       -381.4679427585263625
  Basis Set: 6-31G*
    Blend: 6-31G*
  Basis Set: (6-31G* AUX)
  @DF-RKS Final Energy:  -381.46811708509392
    Total Energy =                       -381.4681170850938656
  @DF-RKS Final Energy:  -381.46813361317305
    Total Energy =                       -381.4681336131730518
   => B3LYP Composite Functional <=
  Basis Set: (6-31G* AUX)
    Blend: CC-PVDZ-JKFIT
  @DF-RKS Final Energy:  -381.46813631138468
    Total Energy =                       -381.4681363113846828
  Basis Set: 6-31G*
    Blend: 6-31G*
  Basis Set: (6-31G* AUX)
    Blend: CC-PVDZ-JKFIT
   => B3LYP Composite Functional <=
  Charge       = 1
  Multiplicity = 1
  Basis Set: 6-31G*
    Blend: 6-31G*
   => B3LYP Composite Functional <=
  Basis Set: (6-31G* AUX)
    Blend: CC-PVDZ-JKFIT

    Orbital Energies (a.u.)
    -----------------------

    Doubly Occupied:

       1A    -14.571994     2A    -14.571926     3A    -10.499466
       4A    -10.370397     5A    -10.352694     6A    -10.352162
       7A    -10.338245     8A    -10.337135     9A    -10.336971
      10A     -1.186834    11A     -1.095798    12A     -1.011581
      13A     -0.924301    14A     -0.898644    15A     -0.844957
      16A     -0.786719    17A     -0.769618    18A     -0.748605
      19A     -0.729955    20A     -0.689673    21A     -0.668192
      22A     -0.621298    23A     -0.620248    24A     -0.580956
      25A     -0.575984    26A     -0.569998    27A     -0.517370
      28A     -0.500963    29A     -0.494836    30A     -0.476087
      31A     -0.408391    32A     -0.402121

  @DF-RKS Final Energy:  -381.46813655397960

   => Energetics <=

    Nuclear Repulsion Energy =            416.7162793439674715
    One-Electron Energy =               -1328.7134378541422848
    Two-Electron Energy =                 574.9458814590916518
    DFT Exchange-Correlation Energy =     -44.4049445728963974
    Empirical Dispersion Energy =          -0.0119149300000000
    PCM Polarization Energy =               0.0000000000000000
    EFP Energy =                            0.0000000000000000
    Total Energy =                       -381.4681365539795479
    Molecular point group: c1
  Basis Set: 6-31G*
    Blend: 6-31G*
  Basis Set: (6-31G* AUX)
    Blend: CC-PVDZ-JKFIT
   => B3LYP Composite Functional <=

  -Total Gradient:
     Atom            X                  Y                   Z
    ------   -----------------  -----------------  -----------------
       1        0.007489423120    -0.001919092633    -0.000192178125
       2       -0.004399507478     0.000075007504     0.000114666638
       3       -0.000017181830    -0.000000714371     0.000008477116
       4       -0.000005824584     0.000004847103    -0.000005924391
       5       -0.000001444987     0.000000124272    -0.000002358811
       6        0.000019246588     0.000001601014     0.000009354305
       7       -0.005352050592     0.005949130621     0.000141084249
       8       -0.000004811606     0.000003741275    -0.000002421313
       9        0.000003561685    -0.000001565779     0.000001951678
      10        0.000002784944    -0.000001741597     0.000002882257
      11       -0.000004758966    -0.000000824358     0.000005164419
      12       -0.000003168012    -0.000007114030    -0.000008854520
      13        0.002262108479    -0.004090524860    -0.000090318133
      14        0.000031472497    -0.000010261265    -0.000009654322
      15       -0.000001398761     0.000014719425     0.000000892611
      16       -0.000021308639    -0.000006077213     0.000018211462
      17        0.000008386010     0.000000404177     0.000006411243
      18        0.000006026150    -0.000004356055     0.000004881174

  **** Optimization is complete! (in 6 steps) ****
    Final optimized geometry and variables:
    Molecular point group: c1

    Geometry (in Angstrom), charge = 1, multiplicity = 1:

    C            0.049989626123     0.003531958244    -0.177226139552
    C            0.091067041756     1.221711954890     0.521108050367
    C            0.056736351034     1.210798368006     1.913649752739
    C           -0.018716394892    -0.003259740040     2.602102008426
    C           -0.073722645868    -1.213314640749     1.903419666195
    C           -0.059345215423    -1.216563938239     0.510987728340
    C            0.007931279515     0.015252557623    -1.650109702488
    H            0.130932265376     2.163390939944    -0.019353390686
    H            0.080314811965     2.148249350739     2.459851035745
    H           -0.039723230127    -0.006768237560     3.687542496728
    H           -0.129373508238    -2.153319823429     2.442925037456
    H           -0.094540093126    -2.154194774788    -0.036649143169
    N            1.000233737332     0.581157853257    -2.325009764247
    N           -0.989892819517    -0.594299165935    -2.276913067795
    H           -1.032006482858    -0.701621335683    -3.284483336040
    H           -1.771822831544    -0.945836118917    -1.738718951301
    H            1.794027084194     0.953386785459    -1.818997131819
    H            0.997913024300     0.691696007180    -3.333124148900

  Mulliken Charges: (a.u.)
   Center  Symbol    Alpha    Beta     Spin     Total
       1     C     2.97731  2.97731  0.00000  0.04539
       2     C     3.07526  3.07526  0.00000 -0.15052
       3     C     3.06177  3.06177  0.00000 -0.12355
       4     C     3.05254  3.05254  0.00000 -0.10509
       5     C     3.06321  3.06321  0.00000 -0.12642
       6     C     3.07714  3.07714  0.00000 -0.15428
       7     C     2.73649  2.73649  0.00000  0.52703
       8     H     0.41341  0.41341  0.00000  0.17317
       9     H     0.40632  0.40632  0.00000  0.18737
      10     H     0.40525  0.40525  0.00000  0.18949
      11     H     0.40629  0.40629  0.00000  0.18741
      12     H     0.41331  0.41331  0.00000  0.17337
      13     N     3.85215  3.85215  0.00000 -0.70431
      14     N     3.85374  3.85374  0.00000 -0.70748
      15     H     0.30534  0.30534  0.00000  0.38931
      16     H     0.29767  0.29767  0.00000  0.40466
      17     H     0.29722  0.29722  0.00000  0.40555
      18     H     0.30556  0.30556  0.00000  0.38888

   Total alpha = 32.00000, Total beta = 32.00000, Total charge =  1.00000

*** Psi4 exiting successfully. Buy a developer a beer!
