                               Psi4 1.1 release

  ==> Input File <==

--------------------------------------------------------------------------
set {
	reference rks
	basis 6-31G*
}

set_num_threads( 8 )
memory 2 gb

molecule MOL {
1 1

C	 -0.000000	 -0.000000	 -0.191639
C	 0.453291	 -1.132584	 0.510391
C	 0.455298	 -1.124888	 1.901670
C	 -0.000000	 0.000000	 2.596333
C	 -0.455298	 1.124888	 1.901670
C	 -0.453290	 1.132584	 0.510391
C	 -0.000000	 -0.000000	 -1.658508
H	 0.847745	 -1.991885	 -0.024627
H	 0.820813	 -1.990734	 2.444112
H	 -0.000000	 0.000000	 3.681982
H	 -0.820814	 1.990733	 2.444112
H	 -0.847745	 1.991885	 -0.024627
N	 -0.712589	 -0.905950	 -2.322235
N	 0.712590	 0.905950	 -2.322235
H	 0.673432	 1.006470	 -3.329771
H	 1.377190	 1.485970	 -1.827091
H	 -1.377189	 -1.485970	 -1.827091
H	 -0.673431	 -1.006470	 -3.329771

	symmetry c1
}
set optking { dynamic_level = 1 }
set optking {
	frozen_dihedral = ("
		2 1 7 13
	")
}

ee,wfn = optimize('b3lyp-d3', return_wfn=True)
oeprop( wfn, 'DIPOLE', 'QUADRUPOLE', 'MULLIKEN_CHARGES')
f=open( 'psi4out.xyz', 'w' )
f.write( "18  " )
f.write( str(ee) + "\n" )
f.write( MOL.save_string_xyz() )
f.close()
--------------------------------------------------------------------------

    Molecular point group: c1
  Charge       = 1
  Multiplicity = 1
  Basis Set: 6-31G*
    Blend: 6-31G*
   => B3LYP Composite Functional <=
  Basis Set: (6-31G* AUX)
    Blend: CC-PVDZ-JKFIT
  @DF-RKS Final Energy:  -381.46715409898172
    Total Energy =                       -381.4671540989817231
    Molecular point group: c1
  Basis Set: 6-31G*
    Blend: 6-31G*
  Basis Set: (6-31G* AUX)
    Blend: CC-PVDZ-JKFIT
   => B3LYP Composite Functional <=
  Basis Set: 6-31G*
    Blend: 6-31G*
   => B3LYP Composite Functional <=
  Basis Set: (6-31G* AUX)
    Blend: CC-PVDZ-JKFIT
  @DF-RKS Final Energy:  -381.46794275294764
    Total Energy =                       -381.4679427529476357
  Basis Set: 6-31G*
    Blend: 6-31G*
  Basis Set: (6-31G* AUX)
  @DF-RKS Final Energy:  -381.46811708736794
    Total Energy =                       -381.4681170873678866
  @DF-RKS Final Energy:  -381.46813361424643
    Total Energy =                       -381.4681336142464829
   => B3LYP Composite Functional <=
  Basis Set: (6-31G* AUX)
    Blend: CC-PVDZ-JKFIT
  @DF-RKS Final Energy:  -381.46813631452835
    Total Energy =                       -381.4681363145283512
  Basis Set: 6-31G*
    Blend: 6-31G*
  Basis Set: (6-31G* AUX)
    Blend: CC-PVDZ-JKFIT
   => B3LYP Composite Functional <=
  Charge       = 1
  Multiplicity = 1
  Basis Set: 6-31G*
    Blend: 6-31G*
   => B3LYP Composite Functional <=
  Basis Set: (6-31G* AUX)
    Blend: CC-PVDZ-JKFIT

    Orbital Energies (a.u.)
    -----------------------

    Doubly Occupied:

       1A    -14.571994     2A    -14.571926     3A    -10.499466
       4A    -10.370397     5A    -10.352694     6A    -10.352162
       7A    -10.338245     8A    -10.337135     9A    -10.336971
      10A     -1.186834    11A     -1.095798    12A     -1.011581
      13A     -0.924301    14A     -0.898644    15A     -0.844957
      16A     -0.786719    17A     -0.769618    18A     -0.748605
      19A     -0.729955    20A     -0.689673    21A     -0.668192
      22A     -0.621298    23A     -0.620248    24A     -0.580956
      25A     -0.575983    26A     -0.569998    27A     -0.517370
      28A     -0.500963    29A     -0.494836    30A     -0.476087
      31A     -0.408390    32A     -0.402121

  @DF-RKS Final Energy:  -381.46813655579916

   => Energetics <=

    Nuclear Repulsion Energy =            416.7162578025582889
    One-Electron Energy =               -1328.7133956806012520
    Two-Electron Energy =                 574.9458603144149720
    DFT Exchange-Correlation Energy =     -44.4049440621711327
    Empirical Dispersion Energy =          -0.0119149300000000
    PCM Polarization Energy =               0.0000000000000000
    EFP Energy =                            0.0000000000000000
    Total Energy =                       -381.4681365557991057
    Molecular point group: c1
  Basis Set: 6-31G*
    Blend: 6-31G*
  Basis Set: (6-31G* AUX)
    Blend: CC-PVDZ-JKFIT
   => B3LYP Composite Functional <=

  -Total Gradient:
     Atom            X                  Y                   Z
    ------   -----------------  -----------------  -----------------
       1       -0.007632744077    -0.001230907302    -0.000192533602
       2        0.004063455548     0.001687971239     0.000114622745
       3        0.000015510495     0.000007439425     0.000008532677
       4        0.000007245632    -0.000002067718    -0.000005871120
       5        0.000001343266     0.000000540797    -0.000002393086
       6       -0.000017040402    -0.000009145570     0.000009370317
       7        0.007282424392    -0.003317187666     0.000141256642
       8        0.000005954731    -0.000001616705    -0.000002486722
       9       -0.000003837598    -0.000000107371     0.000002022985
      10       -0.000003243922     0.000000480624     0.000003038613
      11        0.000004013413     0.000002723590     0.000005201179
      12        0.000000060558     0.000007803897    -0.000008862523
      13       -0.003707338464     0.002846942593    -0.000090325100
      14       -0.000032945285    -0.000003175152    -0.000009658565
      15        0.000007162573    -0.000012925385     0.000000847199
      16        0.000017144516     0.000014118950     0.000018236483
      17       -0.000007575297    -0.000003777592     0.000006449871
      18       -0.000007266664     0.000001579929     0.000004819635

  **** Optimization is complete! (in 6 steps) ****
    Final optimized geometry and variables:
    Molecular point group: c1

    Geometry (in Angstrom), charge = 1, multiplicity = 1:

    C           -0.039008503298    -0.020582880449    -0.188725301986
    C            0.409771348045    -1.153828953437     0.509608969764
    C            0.436889081258    -1.130114278443     1.902150767992
    C            0.021271362660     0.013079640809     2.590603204087
    C           -0.411494106106     1.144438526637     1.891920779312
    C           -0.425973696106     1.141676117307     0.499488765454
    C            0.004230481039    -0.014534373708    -1.661608788758
    H            0.749250608669    -2.033091387704    -0.030852563663
    H            0.789612564949    -1.998996794199     2.448351952047
    H            0.039130304813     0.024684814686     3.676043850106
    H           -0.735832479043     2.028469974244     2.431426170055
    H           -0.768118763442     2.015362056251    -0.048148064285
    N           -0.679550166312    -0.929607093140    -2.336508110583
    N            0.675644149433     0.942758184986    -2.288412912744
    H            0.671398413199     1.057968892532    -3.295983249659
    H            1.252153436051     1.577289889658    -1.750219341601
    H           -1.258672695004    -1.587846271677    -1.830494874558
    H           -0.633283377535    -1.030023595037    -3.344622515136

  Mulliken Charges: (a.u.)
   Center  Symbol    Alpha    Beta     Spin     Total
       1     C     2.97731  2.97731  0.00000  0.04539
       2     C     3.07526  3.07526  0.00000 -0.15052
       3     C     3.06177  3.06177  0.00000 -0.12355
       4     C     3.05254  3.05254  0.00000 -0.10509
       5     C     3.06321  3.06321  0.00000 -0.12642
       6     C     3.07714  3.07714  0.00000 -0.15428
       7     C     2.73649  2.73649  0.00000  0.52703
       8     H     0.41341  0.41341  0.00000  0.17317
       9     H     0.40632  0.40632  0.00000  0.18737
      10     H     0.40525  0.40525  0.00000  0.18949
      11     H     0.40629  0.40629  0.00000  0.18741
      12     H     0.41331  0.41331  0.00000  0.17337
      13     N     3.85215  3.85215  0.00000 -0.70431
      14     N     3.85374  3.85374  0.00000 -0.70748
      15     H     0.30534  0.30534  0.00000  0.38931
      16     H     0.29767  0.29767  0.00000  0.40466
      17     H     0.29722  0.29722  0.00000  0.40555
      18     H     0.30556  0.30556  0.00000  0.38888

   Total alpha = 32.00000, Total beta = 32.00000, Total charge =  1.00000

*** Psi4 exiting successfully. Buy a developer a beer!
