                              Psi4 1.0.54 Driver

  ==> Input File <==

--------------------------------------------------------------------------
set_num_threads(1)
set_memory(3145728000)

set { reference rks }
set { basis 6-31G* }

molecule MOL {
    1 1
    noreorient
    nocom
    symmetry c1
    C    0.000000   0.000000  -0.177864
    C    0.036678   1.219374   0.524165
    C    0.031764   1.213119   1.915444
    C   -0.000000  -0.000000   2.610107
    C   -0.031764  -1.213119   1.915444
    C   -0.036677  -1.219374   0.524165
    C    0.000000  -0.000000  -1.644734
    H    0.018170   2.164705  -0.010853
    H    0.042402   2.152895   2.457886
    H   -0.000000  -0.000000   3.695756
    H   -0.042402  -2.152895   2.457886
    H   -0.018170  -2.164705  -0.010853
    N    0.234187   1.128577  -2.308461
    N   -0.234187  -1.128577  -2.308460
    H   -0.154336  -1.201113  -3.315997
    H   -0.570662  -1.943991  -1.813316
    H    0.570662   1.943991  -1.813317
    H    0.154337   1.201112  -3.315997
}

set optking { frozen_dihedral = (" 2 1 7 13 ") }

set optking { dynamic_level = 1
 geom_maxiter = 250
 print_trajectory_xyz_file = True }

energy, wfn = optimize('B3LYP-D3', return_wfn=True)

import os
os.chdir(os.environ['HTMD_PSI4_WORKDIR'])

oeprop(wfn, 'DIPOLE', 'QUADRUPOLE', 'MULLIKEN_CHARGES')

with open('psi4out.xyz', 'w') as f:
    f.write('18 ' )
    f.write('%.12f\n' % energy)
    f.write(MOL.save_string_xyz())
--------------------------------------------------------------------------

    Molecular point group: c1
  Charge       = 1
  Multiplicity = 1
  Basis Set: 6-31G*
   => B3LYP-D3 Composite Functional <=
  Basis Set:
  @DF-RKS Final Energy:  -381.46614216284763
    Total Energy =                       -381.4661421628475750
    Molecular point group: c1
  Basis Set: 6-31G*
  Basis Set:
   => B3LYP-D3 Composite Functional <=
  Basis Set: 6-31G*
   => B3LYP-D3 Composite Functional <=
  Basis Set:
  @DF-RKS Final Energy:  -381.46715322255812
    Total Energy =                       -381.4671532225581814
  Basis Set: 6-31G*
  Basis Set:
   => B3LYP-D3 Composite Functional <=
  Basis Set: 6-31G*
   => B3LYP-D3 Composite Functional <=
  Basis Set:
  @DF-RKS Final Energy:  -381.46752260870858
    Total Energy =                       -381.4675226087086344
  Basis Set: 6-31G*
  Basis Set:
  @DF-RKS Final Energy:  -381.46753976018022
    Total Energy =                       -381.4675397601801592
   => B3LYP-D3 Composite Functional <=
  Basis Set:
  @DF-RKS Final Energy:  -381.46754863851555
    Total Energy =                       -381.4675486385156660
  Basis Set: 6-31G*
  Basis Set:
   => B3LYP-D3 Composite Functional <=
  Basis Set: 6-31G*
   => B3LYP-D3 Composite Functional <=
  Basis Set:
  @DF-RKS Final Energy:  -381.46755004995043
    Total Energy =                       -381.4675500499505461
  Basis Set: 6-31G*
  Basis Set:
   => B3LYP-D3 Composite Functional <=
  Charge       = 1
  Multiplicity = 1
  Basis Set: 6-31G*
   => B3LYP-D3 Composite Functional <=
  Basis Set:

    Orbital Energies (a.u.)
    -----------------------

    Doubly Occupied:

       1A    -14.565652     2A    -14.565373     3A    -10.497670
       4A    -10.376725     5A    -10.360169     6A    -10.359818
       7A    -10.346277     8A    -10.342646     9A    -10.342603
      10A     -1.182971    11A     -1.089380    12A     -1.016664
      13A     -0.928537    14A     -0.905247    15A     -0.847462
      16A     -0.786117    17A     -0.776095    18A     -0.737542
      19A     -0.736335    20A     -0.688089    21A     -0.669372
      22A     -0.630643    23A     -0.611380    24A     -0.597444
      25A     -0.581742    26A     -0.576298    27A     -0.518401
      28A     -0.509139    29A     -0.500637    30A     -0.471418
      31A     -0.413487    32A     -0.407838

  @DF-RKS Final Energy:  -381.46755014656173

   => Energetics <=

    Nuclear Repulsion Energy =            416.7172458181033790
    One-Electron Energy =               -1328.5430894718003856
    Two-Electron Energy =                 574.7770350983942080
    DFT Exchange-Correlation Energy =     -44.4071532912589930
    Empirical Dispersion Energy =          -0.0115883000000000
    PCM Polarization Energy =               0.0000000000000000
    EFP Energy =                            0.0000000000000000
    Total Energy =                       -381.4675501465617913
    Molecular point group: c1
  Basis Set: 6-31G*
  Basis Set:
   => B3LYP-D3 Composite Functional <=

  -Total Gradient:
     Atom            X                  Y                   Z
    ------   -----------------  -----------------  -----------------
       1       -0.009522762018     0.000804687972    -0.000362819510
       2        0.004836777267    -0.000198017271     0.000207269582
       3       -0.000004244611     0.000002928411    -0.000008475871
       4        0.000003098267    -0.000001337267    -0.000004223242
       5        0.000011725194     0.000004764631    -0.000004329980
       6       -0.000002658735     0.000007012444     0.000006469487
       7        0.009735004720    -0.001729298273     0.000358003135
       8       -0.000011523324    -0.000000255304     0.000009539872
       9        0.000000629460     0.000001685789    -0.000002940533
      10       -0.000002646801     0.000001614206    -0.000000012665
      11       -0.000003567451    -0.000001309998    -0.000003418075
      12       -0.000014890707    -0.000004589017    -0.000005817025
      13       -0.005017322305     0.001113824817    -0.000201642671
      14       -0.000022730748     0.000009160965    -0.000000220106
      15        0.000005362090     0.000000807673     0.000003764061
      16        0.000007724393    -0.000006424398     0.000009231307
      17       -0.000001763599    -0.000006551113    -0.000007292683
      18        0.000004723982     0.000002018140     0.000001739446

  **** Optimization is complete! (in 7 steps) ****
    Final optimized geometry and variables:
    Molecular point group: c1

    Geometry (in Angstrom), charge = 1, multiplicity = 1:

    C           -0.045636079180     0.001189450704    -0.176454287184
    C           -0.020819157795     1.215996450317     0.538028530705
    C           -0.001711403072     1.211847186605     1.927725909645
    C            0.009006622641     0.000337959335     2.625013256806
    C            0.008209095715    -1.210729572684     1.927532815130
    C           -0.005182425635    -1.213671765048     0.537520685410
    C            0.006166947748    -0.003741194014    -1.643663942207
    H           -0.084779695395     2.171130844591     0.025467337698
    H           -0.002869022492     2.153265236104     2.467181108099
    H            0.024091367427     0.000318190117     3.710511948964
    H            0.036635920353    -2.152167859634     2.466214509852
    H            0.061247050253    -2.167688900827     0.023183483080
    N            0.275311851947     1.112061260565    -2.321609787526
    N           -0.288228943309    -1.107934272305    -2.328712542111
    H           -0.212860115574    -1.155880865027    -3.337327287866
    H           -0.691068550943    -1.911823896313    -1.868319768383
    H            0.684743601726     1.910832306295    -1.857934346871
    H            0.247744935587     1.146658441218    -3.333356623238

  Mulliken Charges: (a.u.)
   Center  Symbol    Alpha    Beta     Spin     Total
       1     C     2.93466  2.93466  0.00000  0.13069
       2     C     3.08766  3.08766  0.00000 -0.17533
       3     C     3.06134  3.06134  0.00000 -0.12268
       4     C     3.05136  3.05136  0.00000 -0.10272
       5     C     3.06121  3.06121  0.00000 -0.12243
       6     C     3.08623  3.08623  0.00000 -0.17246
       7     C     2.70844  2.70844  0.00000  0.58312
       8     H     0.41815  0.41815  0.00000  0.16371
       9     H     0.40499  0.40499  0.00000  0.19002
      10     H     0.40279  0.40279  0.00000  0.19441
      11     H     0.40497  0.40497  0.00000  0.19007
      12     H     0.41887  0.41887  0.00000  0.16226
      13     N     3.87330  3.87330  0.00000 -0.74659
      14     N     3.87229  3.87229  0.00000 -0.74458
      15     H     0.30590  0.30590  0.00000  0.38820
      16     H     0.30034  0.30034  0.00000  0.39932
      17     H     0.30138  0.30138  0.00000  0.39723
      18     H     0.30612  0.30612  0.00000  0.38777

   Total alpha = 32.00000, Total beta = 32.00000, Total charge =  1.00000

*** Psi4 exiting successfully. Buy a developer a beer!
