                               Psi4 1.1 release

  ==> Input File <==

--------------------------------------------------------------------------
set {
	reference rks
	basis 6-31G*
}

set_num_threads( 8 )
memory 2 gb

molecule MOL {
1 1

C	 -0.000000	 -0.000000	 -0.191639
C	 -0.576240	 -1.075252	 0.510391
C	 -0.569054	 -1.071842	 1.901670
C	 -0.000000	 0.000000	 2.596333
C	 0.569054	 1.071842	 1.901670
C	 0.576241	 1.075251	 0.510391
C	 -0.000000	 -0.000000	 -1.658508
H	 -0.980953	 -1.929769	 -0.024627
H	 -0.997382	 -1.908398	 2.444112
H	 -0.000000	 0.000000	 3.681982
H	 0.997381	 1.908399	 2.444112
H	 0.980953	 1.929769	 -0.024627
N	 -0.712589	 -0.905950	 -2.322235
N	 0.712590	 0.905950	 -2.322235
H	 0.673432	 1.006470	 -3.329771
H	 1.377190	 1.485970	 -1.827091
H	 -1.377189	 -1.485970	 -1.827091
H	 -0.673431	 -1.006470	 -3.329771

	symmetry c1
}
set optking { dynamic_level = 1 }
set optking {
	frozen_dihedral = ("
		2 1 7 13
	")
}

ee,wfn = optimize('b3lyp-d3', return_wfn=True)
oeprop( wfn, 'DIPOLE', 'QUADRUPOLE', 'MULLIKEN_CHARGES')
f=open( 'psi4out.xyz', 'w' )
f.write( "18  " )
f.write( str(ee) + "\n" )
f.write( MOL.save_string_xyz() )
f.close()
--------------------------------------------------------------------------

    Molecular point group: c1
  Charge       = 1
  Multiplicity = 1
  Basis Set: 6-31G*
    Blend: 6-31G*
   => B3LYP Composite Functional <=
  Basis Set: (6-31G* AUX)
    Blend: CC-PVDZ-JKFIT
  @DF-RKS Final Energy:  -381.46614216810468
    Total Energy =                       -381.4661421681046818
    Molecular point group: c1
  Basis Set: 6-31G*
    Blend: 6-31G*
  Basis Set: (6-31G* AUX)
    Blend: CC-PVDZ-JKFIT
   => B3LYP Composite Functional <=
  Basis Set: 6-31G*
    Blend: 6-31G*
   => B3LYP Composite Functional <=
  Basis Set: (6-31G* AUX)
    Blend: CC-PVDZ-JKFIT
  @DF-RKS Final Energy:  -381.46715323750880
    Total Energy =                       -381.4671532375088532
  Basis Set: 6-31G*
    Blend: 6-31G*
  Basis Set: (6-31G* AUX)
  @DF-RKS Final Energy:  -381.46752261234650
    Total Energy =                       -381.4675226123464995
  @DF-RKS Final Energy:  -381.46753977389335
    Total Energy =                       -381.4675397738934066
  @DF-RKS Final Energy:  -381.46754864378136
    Total Energy =                       -381.4675486437813561
   => B3LYP Composite Functional <=
  Basis Set: (6-31G* AUX)
    Blend: CC-PVDZ-JKFIT
  @DF-RKS Final Energy:  -381.46755005512972
    Total Energy =                       -381.4675500551297773
  Basis Set: 6-31G*
    Blend: 6-31G*
  Basis Set: (6-31G* AUX)
    Blend: CC-PVDZ-JKFIT
   => B3LYP Composite Functional <=
  Charge       = 1
  Multiplicity = 1
  Basis Set: 6-31G*
    Blend: 6-31G*
   => B3LYP Composite Functional <=
  Basis Set: (6-31G* AUX)
    Blend: CC-PVDZ-JKFIT

    Orbital Energies (a.u.)
    -----------------------

    Doubly Occupied:

       1A    -14.565652     2A    -14.565373     3A    -10.497670
       4A    -10.376725     5A    -10.360169     6A    -10.359818
       7A    -10.346276     8A    -10.342646     9A    -10.342603
      10A     -1.182971    11A     -1.089380    12A     -1.016664
      13A     -0.928537    14A     -0.905247    15A     -0.847462
      16A     -0.786117    17A     -0.776095    18A     -0.737542
      19A     -0.736335    20A     -0.688090    21A     -0.669372
      22A     -0.630643    23A     -0.611380    24A     -0.597444
      25A     -0.581742    26A     -0.576298    27A     -0.518401
      28A     -0.509139    29A     -0.500637    30A     -0.471418
      31A     -0.413487    32A     -0.407838

  @DF-RKS Final Energy:  -381.46755015805860

   => Energetics <=

    Nuclear Repulsion Energy =            416.7172385000384907
    One-Electron Energy =               -1328.5430760149763501
    Two-Electron Energy =                 574.7770288622925818
    DFT Exchange-Correlation Energy =     -44.4071531954133505
    Empirical Dispersion Energy =          -0.0115883100000000
    PCM Polarization Energy =               0.0000000000000000
    EFP Energy =                            0.0000000000000000
    Total Energy =                       -381.4675501580585433
    Molecular point group: c1
  Basis Set: 6-31G*
    Blend: 6-31G*
  Basis Set: (6-31G* AUX)
    Blend: CC-PVDZ-JKFIT
   => B3LYP Composite Functional <=

  -Total Gradient:
     Atom            X                  Y                   Z
    ------   -----------------  -----------------  -----------------
       1        0.008166211535    -0.004964109296    -0.000362194903
       2       -0.004241692948     0.002332751641     0.000207316516
       3        0.000002503863    -0.000004505100    -0.000008567706
       4       -0.000002201234     0.000002581047    -0.000004294526
       5       -0.000012653606     0.000000912322    -0.000004384141
       6       -0.000000738273    -0.000007458065     0.000006429378
       7       -0.007944656643     0.005886750203     0.000357666083
       8        0.000010568177    -0.000004926070     0.000009616168
       9       -0.000001278473    -0.000001157388    -0.000002990084
      10        0.000001660665    -0.000002639654    -0.000000053533
      11        0.000003764325    -0.000000470558    -0.000003447629
      12        0.000015468184    -0.000002631921    -0.000005817886
      13        0.003995328835    -0.003233281271    -0.000201658058
      14        0.000016408607    -0.000018333323    -0.000000177242
      15       -0.000005145615     0.000001660216     0.000003762991
      16       -0.000004051398     0.000009183804     0.000009230520
      17        0.000004473283     0.000005152986    -0.000007353569
      18       -0.000005128554     0.000000290745     0.000001741743

  **** Optimization is complete! (in 7 steps) ****
    Final optimized geometry and variables:
    Molecular point group: c1

    Geometry (in Angstrom), charge = 1, multiplicity = 1:

    C            0.035267120851    -0.018265153113    -0.192905782900
    C           -0.528314623764    -1.094716647361     0.521576979045
    C           -0.543570137149    -1.082487270231     1.911274340716
    C           -0.013267810555     0.006847003806     2.608561505662
    C            0.527146812673     1.090653781230     1.911081008501
    C            0.540445366288     1.087320260402     0.521068928072
    C           -0.008910153906     0.009233984279    -1.660115687644
    H           -0.896700065134    -1.978269041655     0.009015769152
    H           -0.962066236223    -1.925772583728     2.450729679140
    H           -0.026762088762     0.013586647253     3.694060185845
    H            0.921243066390     1.946108139534     2.449762732568
    H            0.906127637618     1.970970469362     0.006731508978
    N           -0.747097308497    -0.869705219428    -2.338061633545
    N            0.746712528635     0.866524015709    -2.345163948710
    H            0.700610056934     0.943033050317    -3.353778851249
    H            1.465585707878     1.406652818936    -1.884770591495
    H           -1.469595063224    -1.402310029379    -1.874387584802
    H           -0.737836054118    -0.912961968107    -3.349808489628

  Mulliken Charges: (a.u.)
   Center  Symbol    Alpha    Beta     Spin     Total
       1     C     2.93466  2.93466  0.00000  0.13069
       2     C     3.08766  3.08766  0.00000 -0.17533
       3     C     3.06134  3.06134  0.00000 -0.12268
       4     C     3.05136  3.05136  0.00000 -0.10272
       5     C     3.06121  3.06121  0.00000 -0.12243
       6     C     3.08623  3.08623  0.00000 -0.17246
       7     C     2.70844  2.70844  0.00000  0.58312
       8     H     0.41815  0.41815  0.00000  0.16371
       9     H     0.40499  0.40499  0.00000  0.19002
      10     H     0.40279  0.40279  0.00000  0.19441
      11     H     0.40497  0.40497  0.00000  0.19007
      12     H     0.41887  0.41887  0.00000  0.16226
      13     N     3.87330  3.87330  0.00000 -0.74659
      14     N     3.87229  3.87229  0.00000 -0.74458
      15     H     0.30590  0.30590  0.00000  0.38820
      16     H     0.30034  0.30034  0.00000  0.39932
      17     H     0.30138  0.30138  0.00000  0.39723
      18     H     0.30612  0.30612  0.00000  0.38777

   Total alpha = 32.00000, Total beta = 32.00000, Total charge =  1.00000

*** Psi4 exiting successfully. Buy a developer a beer!
