                               Psi4 1.1 release

  ==> Input File <==

--------------------------------------------------------------------------
set {
	reference rks
	basis 6-31G*
}

set_num_threads( 8 )
memory 2 gb

molecule MOL {
1 1

C	 1.113067	 0.686201	 -2.323274
C	 2.277193	 1.001517	 -1.597704
C	 3.331457	 1.648252	 -2.234870
C	 3.228594	 1.990415	 -3.586747
C	 2.071503	 1.682650	 -4.308999
C	 1.014350	 1.027704	 -3.685146
C	 -0.000000	 -0.000000	 -1.658508
H	 2.378554	 0.699633	 -0.559037
H	 4.236396	 1.876348	 -1.681163
H	 4.052390	 2.498281	 -4.078748
H	 1.989779	 1.962064	 -5.354361
H	 0.101039	 0.829026	 -4.238887
N	 -0.712589	 -0.905950	 -2.322235
N	 -0.294690	 0.284968	 -0.393196
H	 -0.991148	 -0.224685	 0.137809
H	 0.135699	 1.081835	 0.057416
H	 -1.377189	 -1.485970	 -1.827091
H	 -0.673431	 -1.006470	 -3.329771

	symmetry c1
}
set optking { dynamic_level = 1 }
set optking {
	frozen_dihedral = ("
		1 7 13 17
	")
}

ee,wfn = optimize('b3lyp-d3', return_wfn=True)
oeprop( wfn, 'DIPOLE', 'QUADRUPOLE', 'MULLIKEN_CHARGES')
f=open( 'psi4out.xyz', 'w' )
f.write( "18  " )
f.write( str(ee) + "\n" )
f.write( MOL.save_string_xyz() )
f.close()
--------------------------------------------------------------------------

    Molecular point group: c1
  Charge       = 1
  Multiplicity = 1
  Basis Set: 6-31G*
    Blend: 6-31G*
   => B3LYP Composite Functional <=
  Basis Set: (6-31G* AUX)
    Blend: CC-PVDZ-JKFIT
  @DF-RKS Final Energy:  -381.46558327276489
    Total Energy =                       -381.4655832727648885
    Molecular point group: c1
  Basis Set: 6-31G*
    Blend: 6-31G*
  Basis Set: (6-31G* AUX)
    Blend: CC-PVDZ-JKFIT
   => B3LYP Composite Functional <=
  Basis Set: 6-31G*
    Blend: 6-31G*
   => B3LYP Composite Functional <=
  Basis Set: (6-31G* AUX)
    Blend: CC-PVDZ-JKFIT
  @DF-RKS Final Energy:  -381.46798990514725
    Total Energy =                       -381.4679899051473058
  Basis Set: 6-31G*
    Blend: 6-31G*
  Basis Set: (6-31G* AUX)
  @DF-RKS Final Energy:  -381.46923132568810
    Total Energy =                       -381.4692313256881562
  @DF-RKS Final Energy:  -381.46951110844145
    Total Energy =                       -381.4695111084413952
  @DF-RKS Final Energy:  -381.46954308913570
    Total Energy =                       -381.4695430891356978
   => B3LYP Composite Functional <=
  Basis Set: (6-31G* AUX)
    Blend: CC-PVDZ-JKFIT
  @DF-RKS Final Energy:  -381.46954790052024
    Total Energy =                       -381.4695479005201832
  Basis Set: 6-31G*
    Blend: 6-31G*
  Basis Set: (6-31G* AUX)
    Blend: CC-PVDZ-JKFIT
   => B3LYP Composite Functional <=
  Charge       = 1
  Multiplicity = 1
  Basis Set: 6-31G*
    Blend: 6-31G*
   => B3LYP Composite Functional <=
  Basis Set: (6-31G* AUX)
    Blend: CC-PVDZ-JKFIT

    Orbital Energies (a.u.)
    -----------------------

    Doubly Occupied:

       1A    -14.569670     2A    -14.568026     3A    -10.498405
       4A    -10.373852     5A    -10.356524     6A    -10.355879
       7A    -10.342673     8A    -10.340497     9A    -10.340362
      10A     -1.184939    11A     -1.093298    12A     -1.014472
      13A     -0.926872    14A     -0.902285    15A     -0.845597
      16A     -0.785856    17A     -0.774310    18A     -0.740897
      19A     -0.733103    20A     -0.687162    21A     -0.668773
      22A     -0.626299    23A     -0.617192    24A     -0.589620
      25A     -0.578548    26A     -0.573577    27A     -0.517974
      28A     -0.505838    29A     -0.498253    30A     -0.474473
      31A     -0.411209    32A     -0.405731

  @DF-RKS Final Energy:  -381.46954840508846

   => Energetics <=

    Nuclear Repulsion Energy =            416.9224824991187006
    One-Electron Energy =               -1329.0322929879346248
    Two-Electron Energy =                 575.0574894520641465
    DFT Exchange-Correlation Energy =     -44.4053157183366878
    Empirical Dispersion Energy =          -0.0119116500000000
    PCM Polarization Energy =               0.0000000000000000
    EFP Energy =                            0.0000000000000000
    Total Energy =                       -381.4695484050884602
    Molecular point group: c1
  Basis Set: 6-31G*
    Blend: 6-31G*
  Basis Set: (6-31G* AUX)
    Blend: CC-PVDZ-JKFIT
   => B3LYP Composite Functional <=

  -Total Gradient:
     Atom            X                  Y                   Z
    ------   -----------------  -----------------  -----------------
       1        0.001828686400    -0.002067193708     0.000802886111
       2       -0.000010340272    -0.000025104258     0.000005107409
       3        0.000001960695     0.000008978307     0.000001891329
       4       -0.000010857587    -0.000013869487    -0.000001768073
       5        0.000011295370     0.000005332440     0.000009545878
       6       -0.000011407005    -0.000019743228    -0.000015416134
       7       -0.001557744435     0.002032779047    -0.000952627258
       8       -0.000009489707     0.000006130239     0.000000567522
       9       -0.000003770421     0.000001294123    -0.000001129223
      10       -0.000001396444     0.000001891039     0.000001814061
      11       -0.000004456666     0.000004525944     0.000000452930
      12       -0.000001552808     0.000009184015     0.000008844464
      13       -0.003251225584     0.003025596239    -0.000417951878
      14       -0.000029603689    -0.000001537269    -0.000049228686
      15        0.000014336032    -0.000014656584     0.000007521991
      16        0.000005408634    -0.000002902770    -0.000011178733
      17        0.002997211626    -0.002941876077     0.000643998249
      18        0.000014196341    -0.000022598168    -0.000026195983

  **** Optimization is complete! (in 7 steps) ****
    Final optimized geometry and variables:
    Molecular point group: c1

    Geometry (in Angstrom), charge = 1, multiplicity = 1:

    C           -0.151394311165    -0.079980553967     0.086435068996
    C            1.022109475765     0.207250249878     0.807873822279
    C            2.085613946891     0.837222479366     0.168575858466
    C            1.981760672134     1.192993635167    -1.179391573134
    C            0.813995376289     0.915025777080    -1.896521419147
    C           -0.252132760350     0.275980925922    -1.271503188363
    C           -1.270144858078    -0.758706286046     0.751851645591
    H            1.125270525817    -0.104503476772     1.843387050842
    H            2.998222388097     1.042070490274     0.718795764274
    H            2.812657304915     1.688294984490    -1.672217963400
    H            0.730848271246     1.205588104058    -2.938737473738
    H           -1.172947637337     0.101071229672    -1.821039512932
    N           -2.000551683118    -1.647290734409     0.079028974643
    N           -1.538170765339    -0.500439072434     2.027602658156
    H           -2.254912854758    -0.990582046164     2.550117227839
    H           -1.088169334211     0.279662142013     2.488527467077
    H           -2.681382318559    -2.243590455978     0.535903661787
    H           -1.664930905394    -1.972841690618    -0.818829699853

  Mulliken Charges: (a.u.)
   Center  Symbol    Alpha    Beta     Spin     Total
       1     C     2.95714  2.95714  0.00000  0.08572
       2     C     3.08255  3.08255  0.00000 -0.16510
       3     C     3.06250  3.06250  0.00000 -0.12500
       4     C     3.05161  3.05161  0.00000 -0.10322
       5     C     3.06243  3.06243  0.00000 -0.12485
       6     C     3.08333  3.08333  0.00000 -0.16667
       7     C     2.72482  2.72482  0.00000  0.55037
       8     H     0.41466  0.41466  0.00000  0.17069
       9     H     0.40550  0.40550  0.00000  0.18901
      10     H     0.40396  0.40396  0.00000  0.19209
      11     H     0.40536  0.40536  0.00000  0.18928
      12     H     0.41276  0.41276  0.00000  0.17448
      13     N     3.86012  3.86012  0.00000 -0.72025
      14     N     3.86196  3.86196  0.00000 -0.72392
      15     H     0.30538  0.30538  0.00000  0.38925
      16     H     0.29918  0.29918  0.00000  0.40163
      17     H     0.30618  0.30618  0.00000  0.38764
      18     H     0.30057  0.30057  0.00000  0.39886

   Total alpha = 32.00000, Total beta = 32.00000, Total charge =  1.00000

*** Psi4 exiting successfully. Buy a developer a beer!
