                               Psi4 1.1 release

  ==> Input File <==

--------------------------------------------------------------------------
set {
	reference rks
	basis 6-31G*
}

set_num_threads( 8 )
memory 2 gb

molecule MOL {
1 1

C	 1.385998	 -0.293864	 -1.278563
C	 1.890815	 0.171425	 -0.049852
C	 3.204802	 -0.114463	 0.307116
C	 4.020264	 -0.852390	 -0.556430
C	 3.522996	 -1.311988	 -1.779835
C	 2.207833	 -1.040435	 -2.143598
C	 -0.000000	 -0.000000	 -1.658508
H	 1.248488	 0.708035	 0.642754
H	 3.589948	 0.228715	 1.261802
H	 5.046060	 -1.069883	 -0.275227
H	 4.162924	 -1.872504	 -2.453517
H	 1.839116	 -1.362679	 -3.113363
N	 -0.712589	 -0.905950	 -2.322235
N	 -0.541680	 1.171885	 -1.338616
H	 -1.519243	 1.387444	 -1.495684
H	 0.042666	 1.916845	 -0.982442
H	 -1.377189	 -1.485970	 -1.827091
H	 -0.673431	 -1.006470	 -3.329771

	symmetry c1
}
set optking { dynamic_level = 1 }
set optking {
	frozen_dihedral = ("
		1 7 13 17
	")
}

ee,wfn = optimize('b3lyp-d3', return_wfn=True)
oeprop( wfn, 'DIPOLE', 'QUADRUPOLE', 'MULLIKEN_CHARGES')
f=open( 'psi4out.xyz', 'w' )
f.write( "18  " )
f.write( str(ee) + "\n" )
f.write( MOL.save_string_xyz() )
f.close()
--------------------------------------------------------------------------

    Molecular point group: c1
  Charge       = 1
  Multiplicity = 1
  Basis Set: 6-31G*
    Blend: 6-31G*
   => B3LYP Composite Functional <=
  Basis Set: (6-31G* AUX)
    Blend: CC-PVDZ-JKFIT
  @DF-RKS Final Energy:  -381.42448722252783
    Total Energy =                       -381.4244872225278300
    Molecular point group: c1
  Basis Set: 6-31G*
    Blend: 6-31G*
  Basis Set: (6-31G* AUX)
    Blend: CC-PVDZ-JKFIT
   => B3LYP Composite Functional <=
  Basis Set: 6-31G*
    Blend: 6-31G*
   => B3LYP Composite Functional <=
  Basis Set: (6-31G* AUX)
    Blend: CC-PVDZ-JKFIT
  @DF-RKS Final Energy:  -381.43059218567470
    Total Energy =                       -381.4305921856746409
  Basis Set: 6-31G*
    Blend: 6-31G*
  Basis Set: (6-31G* AUX)
  @DF-RKS Final Energy:  -381.43373016597781
    Total Energy =                       -381.4337301659777495
  @DF-RKS Final Energy:  -381.43764318469135
    Total Energy =                       -381.4376431846913533
  @DF-RKS Final Energy:  -381.44100426828800
    Total Energy =                       -381.4410042682879975
  @DF-RKS Final Energy:  -381.43764318459699
    Total Energy =                       -381.4376431845969933
  @DF-RKS Final Energy:  -381.44044315859162
    Total Energy =                       -381.4404431585916200
  @DF-RKS Final Energy:  -381.44293742935633
    Total Energy =                       -381.4429374293562773
  @DF-RKS Final Energy:  -381.44530928310957
    Total Energy =                       -381.4453092831095660
  @DF-RKS Final Energy:  -381.44746710715049
    Total Energy =                       -381.4474671071504304
  @DF-RKS Final Energy:  -381.44924639202412
    Total Energy =                       -381.4492463920241221
  @DF-RKS Final Energy:  -381.45057956453553
    Total Energy =                       -381.4505795645355306
  @DF-RKS Final Energy:  -381.45158970019844
    Total Energy =                       -381.4515897001983831
  @DF-RKS Final Energy:  -381.45233968029146
    Total Energy =                       -381.4523396802914590
  @DF-RKS Final Energy:  -381.45275169218280
    Total Energy =                       -381.4527516921827441
  @DF-RKS Final Energy:  -381.45281995629847
    Total Energy =                       -381.4528199562985264
  @DF-RKS Final Energy:  -381.45282803539703
    Total Energy =                       -381.4528280353970331
  @DF-RKS Final Energy:  -381.45282985953696
    Total Energy =                       -381.4528298595370188
  @DF-RKS Final Energy:  -381.45282962604716
    Total Energy =                       -381.4528296260471620
  @DF-RKS Final Energy:  -381.45282913520435
    Total Energy =                       -381.4528291352044107
  @DF-RKS Final Energy:  -381.45282957020800
    Total Energy =                       -381.4528295702079959
   => B3LYP Composite Functional <=
  Basis Set: (6-31G* AUX)
    Blend: CC-PVDZ-JKFIT
  @DF-RKS Final Energy:  -381.45282962700128
    Total Energy =                       -381.4528296270012220
  Basis Set: 6-31G*
    Blend: 6-31G*
  Basis Set: (6-31G* AUX)
    Blend: CC-PVDZ-JKFIT
   => B3LYP Composite Functional <=
  Charge       = 1
  Multiplicity = 1
  Basis Set: 6-31G*
    Blend: 6-31G*
   => B3LYP Composite Functional <=
  Basis Set: (6-31G* AUX)
    Blend: CC-PVDZ-JKFIT

    Orbital Energies (a.u.)
    -----------------------

    Doubly Occupied:

       1A    -14.577425     2A    -14.541587     3A    -10.496912
       4A    -10.379802     5A    -10.366530     6A    -10.365798
       7A    -10.355014     8A    -10.349189     9A    -10.349006
      10A     -1.179173    11A     -1.081888    12A     -1.022028
      13A     -0.931927    14A     -0.911238    15A     -0.843184
      16A     -0.785059    17A     -0.773172    18A     -0.739896
      19A     -0.721072    20A     -0.680880    21A     -0.673955
      22A     -0.636526    23A     -0.613991    24A     -0.591067
      25A     -0.585980    26A     -0.563591    27A     -0.524455
      28A     -0.515243    29A     -0.506041    30A     -0.468110
      31A     -0.422077    32A     -0.414736

  @DF-RKS Final Energy:  -381.45283041817561

   => Energetics <=

    Nuclear Repulsion Energy =            416.2423650075558044
    One-Electron Energy =               -1327.5173369018602898
    Two-Electron Energy =                 574.2277442782670960
    DFT Exchange-Correlation Energy =     -44.3935468021382675
    Empirical Dispersion Energy =          -0.0120560000000000
    PCM Polarization Energy =               0.0000000000000000
    EFP Energy =                            0.0000000000000000
    Total Energy =                       -381.4528304181756084
    Molecular point group: c1
  Basis Set: 6-31G*
    Blend: 6-31G*
  Basis Set: (6-31G* AUX)
    Blend: CC-PVDZ-JKFIT
   => B3LYP Composite Functional <=

  -Total Gradient:
     Atom            X                  Y                   Z
    ------   -----------------  -----------------  -----------------
       1       -0.003095327190    -0.008851547809     0.004003250651
       2        0.000041438503     0.000012478466     0.000025997188
       3       -0.000000186727     0.000002851174     0.000009894904
       4        0.000005948277    -0.000002227768     0.000001574405
       5       -0.000016541854    -0.000003231270     0.000001099477
       6        0.000013294756     0.000007960743     0.000005437874
       7        0.008373965053     0.011580586344    -0.007361387606
       8       -0.000001797629     0.000006119666     0.000004864439
       9        0.000013450884     0.000001539097     0.000001187024
      10        0.000003297914     0.000000949271    -0.000003316147
      11       -0.000005280136    -0.000001123062    -0.000002255142
      12       -0.000001557132     0.000016044301    -0.000002273571
      13       -0.015862981083     0.004886434054     0.006189851878
      14       -0.000055567389     0.000019511017     0.000025194063
      15       -0.000015438305    -0.000012976639    -0.000006579839
      16       -0.000002829856    -0.000019460271     0.000028070163
      17        0.010597373335    -0.007635052454    -0.002863561173
      18       -0.000015319393    -0.000019707603    -0.000064621462

  **** Optimization is complete! (in 2 steps) ****
    Final optimized geometry and variables:
    Molecular point group: c1

    Geometry (in Angstrom), charge = 1, multiplicity = 1:

    C           -0.163984636030     0.082829501554    -0.064256735885
    C            0.527632888298     0.863028057699     0.889466701397
    C            1.823228429546     0.523258898183     1.254442460802
    C            2.443145659281    -0.589347920503     0.672030996471
    C            1.771177290631    -1.359892833730    -0.282989401535
    C            0.477036046565    -1.023582142338    -0.661217157801
    C           -1.537527870782     0.394231173935    -0.424355397185
    H            0.071140433585     1.758459321893     1.302681346279
    H            2.358882254562     1.129609864566     1.977474276844
    H            3.456801456200    -0.852002115291     0.959136842848
    H            2.255810865523    -2.223279405540    -0.726844432486
    H           -0.049845073995    -1.642905593131    -1.380399842260
    N           -2.109485229000     0.048049572711    -1.625177253712
    N           -2.364290205232     0.931254093113     0.457763286485
    H           -3.293557729811     1.223073101468     0.171328584163
    H           -2.104876768851     1.051447698585     1.429781137589
    H           -2.701959686580    -0.780187974100    -1.613384694673
    H           -1.423085759241    -0.060671138939    -2.367904997048

  Mulliken Charges: (a.u.)
   Center  Symbol    Alpha    Beta     Spin     Total
       1     C     2.93888  2.93888  0.00000  0.12224
       2     C     3.08304  3.08304  0.00000 -0.16607
       3     C     3.06173  3.06173  0.00000 -0.12346
       4     C     3.04952  3.04952  0.00000 -0.09905
       5     C     3.06184  3.06184  0.00000 -0.12367
       6     C     3.07890  3.07890  0.00000 -0.15780
       7     C     2.76999  2.76999  0.00000  0.46001
       8     H     0.41255  0.41255  0.00000  0.17490
       9     H     0.40293  0.40293  0.00000  0.19415
      10     H     0.40078  0.40078  0.00000  0.19843
      11     H     0.40311  0.40311  0.00000  0.19378
      12     H     0.41846  0.41846  0.00000  0.16308
      13     N     3.86583  3.86583  0.00000 -0.73167
      14     N     3.83737  3.83737  0.00000 -0.67473
      15     H     0.29753  0.29753  0.00000  0.40493
      16     H     0.30076  0.30076  0.00000  0.39847
      17     H     0.30442  0.30442  0.00000  0.39115
      18     H     0.31235  0.31235  0.00000  0.37530

   Total alpha = 32.00000, Total beta = 32.00000, Total charge =  1.00000

*** Psi4 exiting successfully. Buy a developer a beer!
