                               Psi4 1.1 release

  ==> Input File <==

--------------------------------------------------------------------------
set_num_threads(1)
set_memory(4203741184)

set { reference rks }
set { basis cc-pVDZ }

molecule MOL {
    0 1
    noreorient
    nocom
    symmetry c1
    O    1.141000   0.017000   0.083000
    C    2.558000   0.086000  -0.005000
    C    3.192000  -0.789000   1.067000
    O    2.253492  -1.753094   1.528621
    H    0.789000   0.590000  -0.620000
    H    2.874000   1.128000   0.115000
    H    2.871000  -0.243000  -1.001000
    H    3.523912  -0.177984   1.912241
    H    4.070066  -1.308117   0.666506
    H    2.708375  -2.281184   2.207656
}

set optking { frozen_dihedral = (" 1 2 3 4 ") }

energy, wfn = energy('B3LYP-D3', return_wfn=True)

import os
os.chdir(os.environ['HTMD_PSI4_WORKDIR'])

oeprop(wfn, 'DIPOLE', 'QUADRUPOLE', 'MULLIKEN_CHARGES')

with open('psi4out.xyz', 'w') as f:
    f.write('10 ' )
    f.write('%.12f\n' % energy)
    f.write(MOL.save_string_xyz())
--------------------------------------------------------------------------

    Molecular point group: c1

    Geometry (in Angstrom), charge = 0, multiplicity = 1:

       Center              X                  Y                   Z               Mass
    ------------   -----------------  -----------------  -----------------  -----------------
           O          1.141000000000     0.017000000000     0.083000000000    15.994914619560
           C          2.558000000000     0.086000000000    -0.005000000000    12.000000000000
           C          3.192000000000    -0.789000000000     1.067000000000    12.000000000000
           O          2.253492000000    -1.753094000000     1.528621000000    15.994914619560
           H          0.789000000000     0.590000000000    -0.620000000000     1.007825032070
           H          2.874000000000     1.128000000000     0.115000000000     1.007825032070
           H          2.871000000000    -0.243000000000    -1.001000000000     1.007825032070
           H          3.523912000000    -0.177984000000     1.912241000000     1.007825032070
           H          4.070066000000    -1.308117000000     0.666506000000     1.007825032070
           H          2.708375000000    -2.281184000000     2.207656000000     1.007825032070

  Charge       = 0
  Multiplicity = 1
  Basis Set: CC-PVDZ
    Blend: CC-PVDZ
   => B3LYP Composite Functional <=
  Basis Set: (CC-PVDZ AUX)
    Blend: CC-PVDZ-JKFIT

    Orbital Energies (a.u.)
    -----------------------

    Doubly Occupied:

       1A    -19.122469     2A    -19.122403     3A    -10.226056
       4A    -10.225867     5A     -1.016431     6A     -0.994355
       7A     -0.733986     8A     -0.599536     9A     -0.526453
      10A     -0.481969    11A     -0.456334    12A     -0.413639
      13A     -0.394639    14A     -0.328564    15A     -0.322946
      16A     -0.266111    17A     -0.245332

  @DF-RKS Final Energy:  -230.24625185132174

   => Energetics <=

    Nuclear Repulsion Energy =            133.0785924100063369
    One-Electron Energy =                -578.0628882423881123
    Two-Electron Energy =                 239.2819522598222193
    DFT Exchange-Correlation Energy =     -24.5398768487621588
    Empirical Dispersion Energy =          -0.0040314300000000
    PCM Polarization Energy =               0.0000000000000000
    EFP Energy =                            0.0000000000000000
    Total Energy =                       -230.2462518513217447

  Mulliken Charges: (a.u.)
   Center  Symbol    Alpha    Beta     Spin     Total
       1     O     4.12939  4.12939  0.00000 -0.25878
       2     C     2.93503  2.93503  0.00000  0.12993
       3     C     2.93519  2.93519  0.00000  0.12962
       4     O     4.12962  4.12962  0.00000 -0.25924
       5     H     0.43159  0.43159  0.00000  0.13681
       6     H     0.50253  0.50253  0.00000 -0.00506
       7     H     0.50141  0.50141  0.00000 -0.00282
       8     H     0.50128  0.50128  0.00000 -0.00257
       9     H     0.50241  0.50241  0.00000 -0.00482
      10     H     0.43154  0.43154  0.00000  0.13692

   Total alpha = 17.00000, Total beta = 17.00000, Total charge = -0.00000

*** Psi4 exiting successfully. Buy a developer a beer!
