                               Psi4 1.1 release

  ==> Input File <==

--------------------------------------------------------------------------
set_num_threads(1)
set_memory(4203741184)

set { reference rks }
set { basis cc-pVDZ }

molecule MOL {
    0 1
    noreorient
    nocom
    symmetry c1
    O    1.141000   0.017000   0.083000
    C    2.558000   0.086000  -0.005000
    C    3.192000  -0.789000   1.067000
    O    3.397325  -0.034264   2.255101
    H    0.789000   0.590000  -0.620000
    H    2.874000   1.128000   0.115000
    H    2.871000  -0.243000  -1.001000
    H    4.153161  -1.181744   0.720792
    H    2.545367  -1.644114   1.293988
    H    3.802007  -0.638251   2.901875
}

set optking { frozen_dihedral = (" 1 2 3 4 ") }

energy, wfn = energy('B3LYP-D3', return_wfn=True)

import os
os.chdir(os.environ['HTMD_PSI4_WORKDIR'])

oeprop(wfn, 'DIPOLE', 'QUADRUPOLE', 'MULLIKEN_CHARGES')

with open('psi4out.xyz', 'w') as f:
    f.write('10 ' )
    f.write('%.12f\n' % energy)
    f.write(MOL.save_string_xyz())
--------------------------------------------------------------------------

    Molecular point group: c1

    Geometry (in Angstrom), charge = 0, multiplicity = 1:

       Center              X                  Y                   Z               Mass
    ------------   -----------------  -----------------  -----------------  -----------------
           O          1.141000000000     0.017000000000     0.083000000000    15.994914619560
           C          2.558000000000     0.086000000000    -0.005000000000    12.000000000000
           C          3.192000000000    -0.789000000000     1.067000000000    12.000000000000
           O          3.397325000000    -0.034264000000     2.255101000000    15.994914619560
           H          0.789000000000     0.590000000000    -0.620000000000     1.007825032070
           H          2.874000000000     1.128000000000     0.115000000000     1.007825032070
           H          2.871000000000    -0.243000000000    -1.001000000000     1.007825032070
           H          4.153161000000    -1.181744000000     0.720792000000     1.007825032070
           H          2.545367000000    -1.644114000000     1.293988000000     1.007825032070
           H          3.802007000000    -0.638251000000     2.901875000000     1.007825032070

  Charge       = 0
  Multiplicity = 1
  Basis Set: CC-PVDZ
    Blend: CC-PVDZ
   => B3LYP Composite Functional <=
  Basis Set: (CC-PVDZ AUX)
    Blend: CC-PVDZ-JKFIT

    Orbital Energies (a.u.)
    -----------------------

    Doubly Occupied:

       1A    -19.126311     2A    -19.126275     3A    -10.226432
       4A    -10.226246     5A     -1.016609     6A     -1.002125
       7A     -0.733321     8A     -0.603000     9A     -0.513391
      10A     -0.512851    11A     -0.424024    12A     -0.422600
      13A     -0.408629    14A     -0.344139    15A     -0.318569
      16A     -0.266917    17A     -0.254382

  @DF-RKS Final Energy:  -230.25551773644025

   => Energetics <=

    Nuclear Repulsion Energy =            130.8459968361206336
    One-Electron Energy =                -573.5188211160497076
    Two-Electron Energy =                 236.9605297027462996
    DFT Exchange-Correlation Energy =     -24.5389009992575140
    Empirical Dispersion Energy =          -0.0043221600000000
    PCM Polarization Energy =               0.0000000000000000
    EFP Energy =                            0.0000000000000000
    Total Energy =                       -230.2555177364402539

  Mulliken Charges: (a.u.)
   Center  Symbol    Alpha    Beta     Spin     Total
       1     O     4.13797  4.13797  0.00000 -0.27593
       2     C     2.93139  2.93139  0.00000  0.13722
       3     C     2.93156  2.93156  0.00000  0.13689
       4     O     4.13821  4.13821  0.00000 -0.27643
       5     H     0.43100  0.43100  0.00000  0.13799
       6     H     0.49532  0.49532  0.00000  0.00936
       7     H     0.50426  0.50426  0.00000 -0.00851
       8     H     0.50412  0.50412  0.00000 -0.00824
       9     H     0.49522  0.49522  0.00000  0.00956
      10     H     0.43095  0.43095  0.00000  0.13810

   Total alpha = 17.00000, Total beta = 17.00000, Total charge = -0.00000

*** Psi4 exiting successfully. Buy a developer a beer!
