                               Psi4 1.1 release

  ==> Input File <==

--------------------------------------------------------------------------
set_num_threads( 8 )
memory 2.000000 gb

set { reference rks }
set { basis cc-pVDZ }

molecule MOL {
    0 1
    noreorient
    nocom
    symmetry c1
    O    1.141000   0.017000   0.083000
    C    2.558000   0.086000  -0.005000
    C    3.192000  -0.789000   1.067000
    O    4.004350   0.002140   1.925809
    H    0.789000   0.590000  -0.620000
    H    2.874000   1.128000   0.115000
    H    2.871000  -0.243000  -1.001000
    H    3.807908  -1.569142   0.608773
    H    2.417441  -1.283996   1.663587
    H    4.382231  -0.603541   2.587052
}

set optking { frozen_dihedral = (" 1 2 3 4, 2 3 4 10 ") }

energy, wfn = energy('B3LYP-D3', return_wfn=True)

import os
os.chdir(os.environ['HTMD_PSI4_WORKDIR'])

oeprop(wfn, 'DIPOLE', 'QUADRUPOLE', 'MULLIKEN_CHARGES')

with open('psi4out.xyz', 'w') as f:
    f.write('10 ' )
    f.write('%.12f\n' % energy)
    f.write(MOL.save_string_xyz())
--------------------------------------------------------------------------

    Molecular point group: c1

    Geometry (in Angstrom), charge = 0, multiplicity = 1:

       Center              X                  Y                   Z               Mass
    ------------   -----------------  -----------------  -----------------  -----------------
           O          1.141000000000     0.017000000000     0.083000000000    15.994914619560
           C          2.558000000000     0.086000000000    -0.005000000000    12.000000000000
           C          3.192000000000    -0.789000000000     1.067000000000    12.000000000000
           O          4.004350000000     0.002140000000     1.925809000000    15.994914619560
           H          0.789000000000     0.590000000000    -0.620000000000     1.007825032070
           H          2.874000000000     1.128000000000     0.115000000000     1.007825032070
           H          2.871000000000    -0.243000000000    -1.001000000000     1.007825032070
           H          3.807908000000    -1.569142000000     0.608773000000     1.007825032070
           H          2.417441000000    -1.283996000000     1.663587000000     1.007825032070
           H          4.382231000000    -0.603541000000     2.587052000000     1.007825032070

  Charge       = 0
  Multiplicity = 1
  Basis Set: CC-PVDZ
    Blend: CC-PVDZ
   => B3LYP Composite Functional <=
  Basis Set: (CC-PVDZ AUX)
    Blend: CC-PVDZ-JKFIT

    Orbital Energies (a.u.)
    -----------------------

    Doubly Occupied:

       1A    -19.128442     2A    -19.128403     3A    -10.225306
       4A    -10.225117     5A     -1.017292     6A     -1.005060
       7A     -0.732723     8A     -0.603190     9A     -0.520716
      10A     -0.504845    11A     -0.438258    12A     -0.410752
      13A     -0.407576    14A     -0.346515    15A     -0.320077
      16A     -0.266186    17A     -0.255953

  @DF-RKS Final Energy:  -230.25321255244495

   => Energetics <=

    Nuclear Repulsion Energy =            130.1040269300683292
    One-Electron Energy =                -572.0073000803051855
    Two-Electron Energy =                 236.1960858456936592
    DFT Exchange-Correlation Energy =     -24.5417833379017978
    Empirical Dispersion Energy =          -0.0042419100000000
    PCM Polarization Energy =               0.0000000000000000
    EFP Energy =                            0.0000000000000000
    Total Energy =                       -230.2532125524449498

  Mulliken Charges: (a.u.)
   Center  Symbol    Alpha    Beta     Spin     Total
       1     O     4.14012  4.14012  0.00000 -0.28024
       2     C     2.93295  2.93295  0.00000  0.13411
       3     C     2.93314  2.93314  0.00000  0.13371
       4     O     4.14036  4.14036  0.00000 -0.28072
       5     H     0.43043  0.43043  0.00000  0.13914
       6     H     0.49400  0.49400  0.00000  0.01201
       7     H     0.50244  0.50244  0.00000 -0.00487
       8     H     0.50229  0.50229  0.00000 -0.00458
       9     H     0.49390  0.49390  0.00000  0.01221
      10     H     0.43038  0.43038  0.00000  0.13924

   Total alpha = 17.00000, Total beta = 17.00000, Total charge = -0.00000

*** Psi4 exiting successfully. Buy a developer a beer!
