                               Psi4 1.1 release

  ==> Input File <==

--------------------------------------------------------------------------
set_num_threads(1)
set_memory(3145728000)

set { reference rks }
set { basis 6-31G* }

molecule MOL {
    1 1
    noreorient
    nocom
    symmetry c1
    C    0.000000   0.000000  -0.177864
    C    0.036678   1.219374   0.524165
    C    0.031764   1.213119   1.915444
    C   -0.000000  -0.000000   2.610107
    C   -0.031764  -1.213119   1.915444
    C   -0.036677  -1.219374   0.524165
    C    0.000000  -0.000000  -1.644734
    H    0.018170   2.164705  -0.010853
    H    0.042402   2.152895   2.457886
    H   -0.000000  -0.000000   3.695756
    H   -0.042402  -2.152895   2.457886
    H   -0.018170  -2.164705  -0.010853
    N   -0.712590  -0.905950  -2.308460
    N    0.712590   0.905950  -2.308461
    H    0.673432   1.006469  -3.315997
    H    1.377190   1.485970  -1.813317
    H   -0.872289  -1.818302  -1.901773
    H   -1.169777  -0.707801  -3.190777
}

set optking { frozen_dihedral = (" 1 7 13 17 ") }

set optking { dynamic_level = 1
 geom_maxiter = 250
 print_trajectory_xyz_file = True }

energy, wfn = optimize('B3LYP-D3', return_wfn=True)

import os
os.chdir(os.environ['HTMD_PSI4_WORKDIR'])

oeprop(wfn, 'DIPOLE', 'QUADRUPOLE', 'MULLIKEN_CHARGES')

with open('psi4out.xyz', 'w') as f:
    f.write('18 ' )
    f.write('%.12f\n' % energy)
    f.write(MOL.save_string_xyz())
--------------------------------------------------------------------------

    Molecular point group: c1
  Charge       = 1
  Multiplicity = 1
  Basis Set: 6-31G*
    Blend: 6-31G*
   => B3LYP Composite Functional <=
  Basis Set: (6-31G* AUX)
    Blend: CC-PVDZ-JKFIT
  @DF-RKS Final Energy:  -381.45496951444642
    Total Energy =                       -381.4549695144464181
    Molecular point group: c1
  Basis Set: 6-31G*
    Blend: 6-31G*
  Basis Set: (6-31G* AUX)
    Blend: CC-PVDZ-JKFIT
   => B3LYP Composite Functional <=
  Basis Set: 6-31G*
    Blend: 6-31G*
   => B3LYP Composite Functional <=
  Basis Set: (6-31G* AUX)
    Blend: CC-PVDZ-JKFIT
  @DF-RKS Final Energy:  -381.46055683382690
    Total Energy =                       -381.4605568338268995
  Basis Set: 6-31G*
    Blend: 6-31G*
  Basis Set: (6-31G* AUX)
  @DF-RKS Final Energy:  -381.46270404234519
    Total Energy =                       -381.4627040423451376
  @DF-RKS Final Energy:  -381.46455528625359
    Total Energy =                       -381.4645552862536420
  @DF-RKS Final Energy:  -381.46486653374717
    Total Energy =                       -381.4648665337471698
  @DF-RKS Final Energy:  -381.46491013309003
    Total Energy =                       -381.4649101330899725
   => B3LYP Composite Functional <=
  Basis Set: (6-31G* AUX)
    Blend: CC-PVDZ-JKFIT
  @DF-RKS Final Energy:  -381.46491445275387
    Total Energy =                       -381.4649144527539306
  Basis Set: 6-31G*
    Blend: 6-31G*
  Basis Set: (6-31G* AUX)
    Blend: CC-PVDZ-JKFIT
   => B3LYP Composite Functional <=
  Charge       = 1
  Multiplicity = 1
  Basis Set: 6-31G*
    Blend: 6-31G*
   => B3LYP Composite Functional <=
  Basis Set: (6-31G* AUX)
    Blend: CC-PVDZ-JKFIT

    Orbital Energies (a.u.)
    -----------------------

    Doubly Occupied:

       1A    -14.572636     2A    -14.566932     3A    -10.500099
       4A    -10.375307     5A    -10.358087     6A    -10.357394
       7A    -10.343069     8A    -10.341286     9A    -10.341027
      10A     -1.186281    11A     -1.094051    12A     -1.015465
      13A     -0.927731    14A     -0.903372    15A     -0.846497
      16A     -0.786072    17A     -0.773398    18A     -0.742652
      19A     -0.733277    20A     -0.685522    21A     -0.669249
      22A     -0.626907    23A     -0.620032    24A     -0.588852
      25A     -0.579524    26A     -0.575528    27A     -0.518637
      28A     -0.506869    29A     -0.499342    30A     -0.475452
      31A     -0.411493    32A     -0.406376

  @DF-RKS Final Energy:  -381.46491470459591

   => Energetics <=

    Nuclear Repulsion Energy =            416.7017145886971434
    One-Electron Energy =               -1328.5310658510993562
    Two-Electron Energy =                 574.7785872450301667
    DFT Exchange-Correlation Energy =     -44.4023120072237987
    Empirical Dispersion Energy =          -0.0118386800000000
    PCM Polarization Energy =               0.0000000000000000
    EFP Energy =                            0.0000000000000000
    Total Energy =                       -381.4649147045959126
    Molecular point group: c1
  Basis Set: 6-31G*
    Blend: 6-31G*
  Basis Set: (6-31G* AUX)
    Blend: CC-PVDZ-JKFIT
   => B3LYP Composite Functional <=

  -Total Gradient:
     Atom            X                  Y                   Z
    ------   -----------------  -----------------  -----------------
       1       -0.004785633861     0.004803863102    -0.000016094831
       2        0.000009504989    -0.000011863014     0.000024771702
       3       -0.000001644643     0.000008679566    -0.000007114778
       4       -0.000007172599    -0.000002958793     0.000006356523
       5       -0.000006941478    -0.000002362704    -0.000002561397
       6        0.000013597890    -0.000004858438     0.000011115418
       7        0.010152054195    -0.008956440953    -0.001570621567
       8       -0.000000889067    -0.000001738624    -0.000004701823
       9        0.000001230060    -0.000000831222    -0.000003133058
      10        0.000004953385     0.000001053778    -0.000001124999
      11       -0.000002097241    -0.000001407816    -0.000003393458
      12       -0.000001746247    -0.000004950879     0.000006365776
      13       -0.012888927817     0.008326745122     0.005807931777
      14       -0.000039637303     0.000031007940    -0.000010652303
      15       -0.000000610479     0.000002025852     0.000002093851
      16        0.000011563470    -0.000010407971    -0.000005182797
      17        0.007533220416    -0.004189721515    -0.004256557276
      18        0.000005501952     0.000001056133     0.000002105356

  **** Optimization is complete! (in 8 steps) ****
    Final optimized geometry and variables:
    Molecular point group: c1

    Geometry (in Angstrom), charge = 1, multiplicity = 1:

    C            0.009971471653    -0.011977151066    -0.172927003227
    C            0.056445504586     1.208266533455     0.526224325351
    C            0.050369216442     1.205436098940     1.917933845709
    C            0.015831265313    -0.004187303657     2.617266650416
    C           -0.021123740800    -1.218811706077     1.925831526224
    C           -0.029372456184    -1.227025147878     0.534900585338
    C           -0.007167297298    -0.011650245317    -1.642487402532
    H            0.037624623145     2.154334208276    -0.007219563772
    H            0.063075185530     2.147576365108     2.456233821849
    H            0.016047992661    -0.000681480912     3.702839766258
    H           -0.036017302345    -2.157456010231     2.470022563563
    H           -0.019111555691    -2.178951549783     0.009758930363
    N           -0.835281705634    -0.830578499965    -2.302054695297
    N            0.672861005391     0.915182977082    -2.306875716890
    H            0.611903098993     1.030907464454    -3.312046295393
    H            1.296179114896     1.538782590709    -1.810776492480
    H           -1.085042529577    -1.714301438204    -1.873100281127
    H           -0.788634891081    -0.878529704934    -3.315760564353

  Mulliken Charges: (a.u.)
   Center  Symbol    Alpha    Beta     Spin     Total
       1     C     2.94280  2.94280  0.00000  0.11440
       2     C     3.08236  3.08236  0.00000 -0.16471
       3     C     3.06216  3.06216  0.00000 -0.12431
       4     C     3.05162  3.05162  0.00000 -0.10324
       5     C     3.06234  3.06234  0.00000 -0.12468
       6     C     3.08470  3.08470  0.00000 -0.16940
       7     C     2.74193  2.74193  0.00000  0.51614
       8     H     0.41495  0.41495  0.00000  0.17010
       9     H     0.40522  0.40522  0.00000  0.18955
      10     H     0.40376  0.40376  0.00000  0.19249
      11     H     0.40533  0.40533  0.00000  0.18934
      12     H     0.41837  0.41837  0.00000  0.16325
      13     N     3.84882  3.84882  0.00000 -0.69763
      14     N     3.86020  3.86020  0.00000 -0.72040
      15     H     0.30460  0.30460  0.00000  0.39080
      16     H     0.29871  0.29871  0.00000  0.40259
      17     H     0.30181  0.30181  0.00000  0.39639
      18     H     0.31034  0.31034  0.00000  0.37932

   Total alpha = 32.00000, Total beta = 32.00000, Total charge =  1.00000

*** Psi4 exiting successfully. Buy a developer a beer!
