                               Psi4 1.1 release

  ==> Input File <==

--------------------------------------------------------------------------
set {
	reference rks
	basis cc-pvdz
}

set_num_threads( 8 )
memory 2 gb

molecule MOL {
0 1

O	 1.014300	 -0.002300	 0.060500
O	 2.462400	 -0.107500	 -0.002400
H	 0.862091	 -0.839960	 0.538160
H	 2.655500	 0.713700	 0.488700

	symmetry c1
}
set optking { dynamic_level = 1 }
set optking {
	frozen_dihedral = ("
		3 1 2 4
	")
}

ee,wfn = energy('b3lyp-d3', return_wfn=True)
oeprop( wfn, 'DIPOLE', 'QUADRUPOLE', 'MULLIKEN_CHARGES')
f=open( 'psi4out.xyz', 'w' )
f.write( "4  " )
f.write( str(ee) + "\n" )
f.write( MOL.save_string_xyz() )
f.close()
--------------------------------------------------------------------------

    Molecular point group: c1

    Geometry (in Angstrom), charge = 0, multiplicity = 1:

       Center              X                  Y                   Z               Mass
    ------------   -----------------  -----------------  -----------------  -----------------
           O         -0.725261892149     0.053087827267     0.002738727638    15.994914619560
           O          0.722838107851    -0.052112172733    -0.060161272362    15.994914619560
           H         -0.877470892149    -0.784572172733     0.480398727638     1.007825032070
           H          0.915938107851     0.769087827267     0.430938727638     1.007825032070

  Charge       = 0
  Multiplicity = 1
  Basis Set: CC-PVDZ
    Blend: CC-PVDZ
   => B3LYP Composite Functional <=
  Basis Set: (CC-PVDZ AUX)
    Blend: CC-PVDZ-JKFIT

    Orbital Energies (a.u.)
    -----------------------

    Doubly Occupied:

       1A    -19.187627     2A    -19.187586     3A     -1.111917
       4A     -0.886412     5A     -0.510193     6A     -0.490444
       7A     -0.411432     8A     -0.317208     9A     -0.265276

  @DF-RKS Final Energy:  -151.55032956021532

   => Energetics <=

    Nuclear Repulsion Energy =             36.7993608795603677
    One-Electron Energy =                -281.5787550095941469
    Two-Electron Energy =                 107.6917221462205845
    DFT Exchange-Correlation Energy =     -14.4623374764020980
    Empirical Dispersion Energy =          -0.0003201000000000
    PCM Polarization Energy =               0.0000000000000000
    EFP Energy =                            0.0000000000000000
    Total Energy =                       -151.5503295602153173

  Mulliken Charges: (a.u.)
   Center  Symbol    Alpha    Beta     Spin     Total
       1     O     4.09082  4.09082  0.00000 -0.18165
       2     O     4.09080  4.09080  0.00000 -0.18161
       3     H     0.40918  0.40918  0.00000  0.18165
       4     H     0.40920  0.40920  0.00000  0.18161

   Total alpha =  9.00000, Total beta =  9.00000, Total charge = -0.00000

*** Psi4 exiting successfully. Buy a developer a beer!
