                               Psi4 1.1 release

  ==> Input File <==

--------------------------------------------------------------------------
set {
	reference rks
	basis 6-31G*
}

set_num_threads( 8 )
memory 2 gb

molecule MOL {
1 1

C	 -0.516152	 1.363756	 -1.498940
C	 0.368328	 2.457997	 -1.536326
C	 -0.127756	 3.749481	 -1.389057
C	 -1.497164	 3.955748	 -1.195660
C	 -2.377705	 2.870351	 -1.153395
C	 -1.894682	 1.574877	 -1.308819
C	 -0.000000	 -0.000000	 -1.658508
H	 1.426572	 2.305594	 -1.729019
H	 0.550714	 4.595112	 -1.435110
H	 -1.879174	 4.965082	 -1.077561
H	 -3.437916	 3.033343	 -0.989327
H	 -2.576409	 0.732461	 -1.232526
N	 -0.712589	 -0.905950	 -2.322235
N	 1.179684	 -0.328191	 -1.139183
H	 1.620994	 -1.226091	 -1.299771
H	 1.643273	 0.305184	 -0.501056
H	 -1.377189	 -1.485970	 -1.827091
H	 -0.673431	 -1.006470	 -3.329771

	symmetry c1
}
set optking { dynamic_level = 1 }
set optking {
	frozen_dihedral = ("
		1 7 13 17
	")
}

ee,wfn = optimize('b3lyp-d3', return_wfn=True)
oeprop( wfn, 'DIPOLE', 'QUADRUPOLE', 'MULLIKEN_CHARGES')
f=open( 'psi4out.xyz', 'w' )
f.write( "18  " )
f.write( str(ee) + "\n" )
f.write( MOL.save_string_xyz() )
f.close()
--------------------------------------------------------------------------

    Molecular point group: c1
  Charge       = 1
  Multiplicity = 1
  Basis Set: 6-31G*
    Blend: 6-31G*
   => B3LYP Composite Functional <=
  Basis Set: (6-31G* AUX)
    Blend: CC-PVDZ-JKFIT
  @DF-RKS Final Energy:  -381.42631377485560
    Total Energy =                       -381.4263137748556005
    Molecular point group: c1
  Basis Set: 6-31G*
    Blend: 6-31G*
  Basis Set: (6-31G* AUX)
    Blend: CC-PVDZ-JKFIT
   => B3LYP Composite Functional <=
  Basis Set: 6-31G*
    Blend: 6-31G*
   => B3LYP Composite Functional <=
  Basis Set: (6-31G* AUX)
    Blend: CC-PVDZ-JKFIT
  @DF-RKS Final Energy:  -381.43457915654591
    Total Energy =                       -381.4345791565459649
  Basis Set: 6-31G*
    Blend: 6-31G*
  Basis Set: (6-31G* AUX)
  @DF-RKS Final Energy:  -381.43968968667349
    Total Energy =                       -381.4396896866734323
  @DF-RKS Final Energy:  -380.34110177198670
    Total Energy =                       -380.3411017719867004
  @DF-RKS Final Energy:  -380.70444000946122
    Total Energy =                       -380.7044400094612229
  @DF-RKS Final Energy:  -381.07753154792164
    Total Energy =                       -381.0775315479216374
  @DF-RKS Final Energy:  -381.34231965637053
    Total Energy =                       -381.3423196563704778
  @DF-RKS Final Energy:  -381.07753154817408
    Total Energy =                       -381.0775315481741359
  @DF-RKS Final Energy:  -381.14665200024990
    Total Energy =                       -381.1466520002499578
  @DF-RKS Final Energy:  -381.21083803917799
    Total Energy =                       -381.2108380391780429
  @DF-RKS Final Energy:  -381.26931533046542
    Total Energy =                       -381.2693153304654174
  @DF-RKS Final Energy:  -381.32118686004162
    Total Energy =                       -381.3211868600416210
  @DF-RKS Final Energy:  -381.36547785302287
    Total Energy =                       -381.3654778530228668
  @DF-RKS Final Energy:  -381.40112414849960
    Total Energy =                       -381.4011241484996617
  @DF-RKS Final Energy:  -381.42704187813183
    Total Energy =                       -381.4270418781318313
  @DF-RKS Final Energy:  -381.44230186388847
    Total Energy =                       -381.4423018638884741
  @DF-RKS Final Energy:  -381.44737787031835
    Total Energy =                       -381.4473778703183484
  @DF-RKS Final Energy:  -381.44838922889039
    Total Energy =                       -381.4483892288904485
  @DF-RKS Final Energy:  -381.44862400851338
    Total Energy =                       -381.4486240085133204
  @DF-RKS Final Energy:  -381.44860617322047
    Total Energy =                       -381.4486061732204689
  @DF-RKS Final Energy:  -381.44875181665930
    Total Energy =                       -381.4487518166592963
  @DF-RKS Final Energy:  -381.44863072467490
    Total Energy =                       -381.4486307246749561
  @DF-RKS Final Energy:  -381.44877302082563
    Total Energy =                       -381.4487730208256835
  @DF-RKS Final Energy:  -381.44854221181095
    Total Energy =                       -381.4485422118109454
  @DF-RKS Final Energy:  -381.44878212742719
    Total Energy =                       -381.4487821274271937
  @DF-RKS Final Energy:  -381.44872647760968
    Total Energy =                       -381.4487264776097390
  @DF-RKS Final Energy:  -381.44880232012383
    Total Energy =                       -381.4488023201237752
  @DF-RKS Final Energy:  -381.44871763832009
    Total Energy =                       -381.4487176383200335
  @DF-RKS Final Energy:  -381.44880424143139
    Total Energy =                       -381.4488042414314464
  @DF-RKS Final Energy:  -381.44881463125535
    Total Energy =                       -381.4488146312554022
   => B3LYP Composite Functional <=
  Basis Set: (6-31G* AUX)
    Blend: CC-PVDZ-JKFIT
  @DF-RKS Final Energy:  -381.44882667516725
    Total Energy =                       -381.4488266751672541
  Basis Set: 6-31G*
    Blend: 6-31G*
  Basis Set: (6-31G* AUX)
    Blend: CC-PVDZ-JKFIT
   => B3LYP Composite Functional <=
  Charge       = 1
  Multiplicity = 1
  Basis Set: 6-31G*
    Blend: 6-31G*
   => B3LYP Composite Functional <=
  Basis Set: (6-31G* AUX)
    Blend: CC-PVDZ-JKFIT

    Orbital Energies (a.u.)
    -----------------------

    Doubly Occupied:

       1A    -14.580598     2A    -14.535771     3A    -10.497630
       4A    -10.381135     5A    -10.368169     6A    -10.367822
       7A    -10.357036     8A    -10.350833     9A    -10.350440
      10A     -1.179160    11A     -1.079674    12A     -1.023464
      13A     -0.933159    14A     -0.912866    15A     -0.843569
      16A     -0.785974    17A     -0.774222    18A     -0.740799
      19A     -0.715468    20A     -0.682104    21A     -0.672074
      22A     -0.637934    23A     -0.613970    24A     -0.592733
      25A     -0.587336    26A     -0.562972    27A     -0.524832
      28A     -0.517128    29A     -0.507531    30A     -0.465873
      31A     -0.423689    32A     -0.416315

  @DF-RKS Final Energy:  -381.44882734558195

   => Energetics <=

    Nuclear Repulsion Energy =            416.0644629224055961
    One-Electron Energy =               -1327.1238096749957549
    Two-Electron Energy =                 574.0133903122717811
    DFT Exchange-Correlation Energy =     -44.3907751452634756
    Empirical Dispersion Energy =          -0.0120957600000000
    PCM Polarization Energy =               0.0000000000000000
    EFP Energy =                            0.0000000000000000
    Total Energy =                       -381.4488273455818899
    Molecular point group: c1
  Basis Set: 6-31G*
    Blend: 6-31G*
  Basis Set: (6-31G* AUX)
    Blend: CC-PVDZ-JKFIT
   => B3LYP Composite Functional <=

  -Total Gradient:
     Atom            X                  Y                   Z
    ------   -----------------  -----------------  -----------------
       1       -0.005177360858    -0.006391545052     0.005093235398
       2       -0.000017279062    -0.000258839118    -0.000045384664
       3        0.000110614000     0.000314426787     0.000024526600
       4       -0.000096460413     0.000108825831    -0.000301696926
       5        0.000207021128    -0.000086341638     0.000115858976
       6        0.000015301043     0.000057557538    -0.000053787085
       7        0.006075478613     0.012909218487    -0.006210844065
       8       -0.000012477024     0.000043610289    -0.000069047791
       9       -0.000131039678    -0.000143357489     0.000028851825
      10       -0.000042045471    -0.000074508532     0.000196683572
      11       -0.000051637930     0.000078779526    -0.000008011649
      12       -0.000014691586    -0.000052658726     0.000019887579
      13        0.005616620979    -0.016265486078    -0.004054800280
      14        0.000240914317     0.000096600691     0.000034026812
      15        0.000033018308    -0.000041836515    -0.000071995034
      16       -0.000026466418     0.000033551338    -0.000035650849
      17       -0.006667672784     0.009480893487     0.005371224672
      18       -0.000057731146     0.000172584308    -0.000054368680

  **** Optimization is complete! (in 20 steps) ****
    Final optimized geometry and variables:
    Molecular point group: c1

    Geometry (in Angstrom), charge = 1, multiplicity = 1:

    C            0.041485666128    -0.090837180411    -0.166433916792
    C            1.194828280780     0.245578392579     0.578831335649
    C            1.091867098504     1.099538956431     1.668047744839
    C           -0.154743027724     1.631139503068     2.022703295448
    C           -1.299259115372     1.317571809266     1.282001644916
    C           -1.205525296732     0.469886761672     0.185238737481
    C            0.116112342861    -1.020065373383    -1.279490937655
    H            2.172937783751    -0.117349036785     0.274697896547
    H            1.978442436643     1.364171248270     2.234492183040
    H           -0.232209989476     2.296377546938     2.877541058375
    H           -2.261902547608     1.731888562062     1.563369088627
    H           -2.101609899159     0.208663721247    -0.368755638422
    N           -0.805354363317    -1.073871091468    -2.313272105085
    N            1.024958708727    -1.976922799736    -1.311037547170
    H            1.101685636255    -2.566499422260    -2.134701703245
    H            1.645433601610    -2.159676626461    -0.530688966224
    H           -1.587563914586    -1.706442292760    -2.145345582629
    H           -1.203717824238    -0.155751826790    -2.504166787526

  Mulliken Charges: (a.u.)
   Center  Symbol    Alpha    Beta     Spin     Total
       1     C     2.93403  2.93403  0.00000  0.13195
       2     C     3.08341  3.08341  0.00000 -0.16682
       3     C     3.06149  3.06149  0.00000 -0.12299
       4     C     3.04923  3.04923  0.00000 -0.09846
       5     C     3.06168  3.06168  0.00000 -0.12335
       6     C     3.07911  3.07911  0.00000 -0.15821
       7     C     2.77892  2.77892  0.00000  0.44216
       8     H     0.41298  0.41298  0.00000  0.17404
       9     H     0.40255  0.40255  0.00000  0.19491
      10     H     0.40026  0.40026  0.00000  0.19948
      11     H     0.40268  0.40268  0.00000  0.19464
      12     H     0.41891  0.41891  0.00000  0.16217
      13     N     3.86689  3.86689  0.00000 -0.73377
      14     N     3.83196  3.83196  0.00000 -0.66392
      15     H     0.29575  0.29575  0.00000  0.40849
      16     H     0.30074  0.30074  0.00000  0.39852
      17     H     0.30535  0.30535  0.00000  0.38930
      18     H     0.31407  0.31407  0.00000  0.37186

   Total alpha = 32.00000, Total beta = 32.00000, Total charge =  1.00000

*** Psi4 exiting successfully. Buy a developer a beer!
