                               Psi4 1.1 release

  ==> Input File <==

--------------------------------------------------------------------------
set {
	reference rks
	basis 6-31G*
}

set_num_threads( 8 )
memory 2 gb

molecule MOL {
1 1

C	 -0.000000	 -0.000000	 -0.191639
C	 0.038588	 -1.219315	 0.510391
C	 0.043106	 -1.212770	 1.901670
C	 -0.000000	 0.000000	 2.596333
C	 -0.043106	 1.212770	 1.901670
C	 -0.038587	 1.219315	 0.510391
C	 -0.000000	 -0.000000	 -1.658508
H	 0.115355	 -2.161706	 -0.024627
H	 0.090441	 -2.151412	 2.444112
H	 -0.000000	 0.000000	 3.681982
H	 -0.090442	 2.151412	 2.444112
H	 -0.115355	 2.161706	 -0.024627
N	 -0.712589	 -0.905950	 -2.322235
N	 0.712590	 0.905950	 -2.322235
H	 0.673432	 1.006470	 -3.329771
H	 1.377190	 1.485970	 -1.827091
H	 -1.377189	 -1.485970	 -1.827091
H	 -0.673431	 -1.006470	 -3.329771

	symmetry c1
}
set optking { dynamic_level = 1 }
set optking {
	frozen_dihedral = ("
		2 1 7 13
	")
}

ee,wfn = optimize('b3lyp-d3', return_wfn=True)
oeprop( wfn, 'DIPOLE', 'QUADRUPOLE', 'MULLIKEN_CHARGES')
f=open( 'psi4out.xyz', 'w' )
f.write( "18  " )
f.write( str(ee) + "\n" )
f.write( MOL.save_string_xyz() )
f.close()
--------------------------------------------------------------------------

    Molecular point group: c1
  Charge       = 1
  Multiplicity = 1
  Basis Set: 6-31G*
    Blend: 6-31G*
   => B3LYP Composite Functional <=
  Basis Set: (6-31G* AUX)
    Blend: CC-PVDZ-JKFIT
  @DF-RKS Final Energy:  -381.47041208385440
    Total Energy =                       -381.4704120838543417
    Molecular point group: c1
  Basis Set: 6-31G*
    Blend: 6-31G*
  Basis Set: (6-31G* AUX)
    Blend: CC-PVDZ-JKFIT
   => B3LYP Composite Functional <=
  Basis Set: 6-31G*
    Blend: 6-31G*
   => B3LYP Composite Functional <=
  Basis Set: (6-31G* AUX)
    Blend: CC-PVDZ-JKFIT
  @DF-RKS Final Energy:  -381.47043112071236
    Total Energy =                       -381.4704311207123055
  Basis Set: 6-31G*
    Blend: 6-31G*
  Basis Set: (6-31G* AUX)
   => B3LYP Composite Functional <=
  Basis Set: (6-31G* AUX)
    Blend: CC-PVDZ-JKFIT
  @DF-RKS Final Energy:  -381.47044771595091
    Total Energy =                       -381.4704477159509679
  Basis Set: 6-31G*
    Blend: 6-31G*
  Basis Set: (6-31G* AUX)
    Blend: CC-PVDZ-JKFIT
   => B3LYP Composite Functional <=
  Charge       = 1
  Multiplicity = 1
  Basis Set: 6-31G*
    Blend: 6-31G*
   => B3LYP Composite Functional <=
  Basis Set: (6-31G* AUX)
    Blend: CC-PVDZ-JKFIT

    Orbital Energies (a.u.)
    -----------------------

    Doubly Occupied:

       1A    -14.568526     2A    -14.568517     3A    -10.497352
       4A    -10.372754     5A    -10.355655     6A    -10.355548
       7A    -10.342360     8A    -10.339997     9A    -10.339933
      10A     -1.184154    11A     -1.092455    12A     -1.013893
      13A     -0.926282    14A     -0.901714    15A     -0.845253
      16A     -0.785795    17A     -0.772926    18A     -0.742608
      19A     -0.732394    20A     -0.688913    21A     -0.668976
      22A     -0.624758    23A     -0.617901    24A     -0.585898
      25A     -0.578593    26A     -0.572428    27A     -0.518251
      28A     -0.504871    29A     -0.497648    30A     -0.473241
      31A     -0.411279    32A     -0.405255

  @DF-RKS Final Energy:  -381.47044845509708

   => Energetics <=

    Nuclear Repulsion Energy =            416.9161858318908571
    One-Electron Energy =               -1329.0531322349056609
    Two-Electron Energy =                 575.0843204096827321
    DFT Exchange-Correlation Energy =     -44.4058623817649760
    Empirical Dispersion Energy =          -0.0119600800000000
    PCM Polarization Energy =               0.0000000000000000
    EFP Energy =                            0.0000000000000000
    Total Energy =                       -381.4704484550970278
    Molecular point group: c1
  Basis Set: 6-31G*
    Blend: 6-31G*
  Basis Set: (6-31G* AUX)
    Blend: CC-PVDZ-JKFIT
   => B3LYP Composite Functional <=

  -Total Gradient:
     Atom            X                  Y                   Z
    ------   -----------------  -----------------  -----------------
       1       -0.001542183226     0.000227547873    -0.000032737410
       2        0.000808604734     0.000001074186     0.000033566933
       3       -0.000013026441     0.000009147758     0.000000343704
       4        0.000010909053    -0.000004771501    -0.000004647505
       5        0.000010313606    -0.000002434408    -0.000002457133
       6       -0.000011078453     0.000023003253     0.000019641997
       7        0.001498869392    -0.000821115163     0.000035202800
       8       -0.000007776241     0.000012230676    -0.000009409708
       9        0.000016294912     0.000000823194     0.000001125275
      10       -0.000004473237    -0.000003208181    -0.000003212739
      11       -0.000005701205    -0.000001063791    -0.000001654423
      12       -0.000008742200    -0.000012305907    -0.000003716146
      13       -0.000665453132     0.000530649671    -0.000020612531
      14       -0.000036815758     0.000011605853    -0.000017606539
      15       -0.000006713914     0.000005550812    -0.000005634057
      16       -0.000015176299    -0.000010959723    -0.000001961505
      17       -0.000014403574     0.000025063680     0.000002914648
      18       -0.000012560529     0.000010137437    -0.000009234761

  **** Optimization is complete! (in 4 steps) ****
    Final optimized geometry and variables:
    Molecular point group: c1

    Geometry (in Angstrom), charge = 1, multiplicity = 1:

    C           -0.007485794810    -0.000548979529    -0.191296601362
    C            0.030613352663    -1.220056022046     0.509706338927
    C            0.040654238965    -1.212709656074     1.901186225876
    C            0.004934810332     0.000670332946     2.595070654268
    C           -0.034674277405     1.213512662963     1.900195453259
    C           -0.033457220207     1.219814854455     0.508753725700
    C            0.000502747870    -0.002252833851    -1.658705847148
    H            0.097558891059    -2.162096698163    -0.027296796516
    H            0.086762195070    -2.151132339169     2.444154777844
    H            0.008748842815     0.001213781751     3.680716331930
    H           -0.074950465743     2.152506132092     2.442640701767
    H           -0.101729713409     2.161580725610    -0.028533847658
    N           -0.706664868063    -0.911690985705    -2.322497472060
    N            0.704473299301     0.912926852638    -2.317947827201
    H            0.669436495016     1.015126430125    -3.325607959473
    H            1.356171420872     1.502542581548    -1.816792483555
    H           -1.358788940322    -1.503065370603    -1.823937814639
    H           -0.665711233134    -1.015157363152    -3.329799929835

  Mulliken Charges: (a.u.)
   Center  Symbol    Alpha    Beta     Spin     Total
       1     C     2.96014  2.96014  0.00000  0.07972
       2     C     3.08109  3.08109  0.00000 -0.16219
       3     C     3.06242  3.06242  0.00000 -0.12484
       4     C     3.05159  3.05159  0.00000 -0.10317
       5     C     3.06266  3.06266  0.00000 -0.12531
       6     C     3.08138  3.08138  0.00000 -0.16276
       7     C     2.72412  2.72412  0.00000  0.55177
       8     H     0.41400  0.41400  0.00000  0.17200
       9     H     0.40554  0.40554  0.00000  0.18892
      10     H     0.40407  0.40407  0.00000  0.19187
      11     H     0.40554  0.40554  0.00000  0.18892
      12     H     0.41393  0.41393  0.00000  0.17215
      13     N     3.86153  3.86153  0.00000 -0.72306
      14     N     3.86198  3.86198  0.00000 -0.72397
      15     H     0.30565  0.30565  0.00000  0.38870
      16     H     0.29941  0.29941  0.00000  0.40118
      17     H     0.29928  0.29928  0.00000  0.40144
      18     H     0.30568  0.30568  0.00000  0.38865

   Total alpha = 32.00000, Total beta = 32.00000, Total charge =  1.00000

*** Psi4 exiting successfully. Buy a developer a beer!
