                               Psi4 1.1 release

  ==> Input File <==

--------------------------------------------------------------------------
set {
	reference rks
	basis 6-31G*
}

set_num_threads( 8 )
memory 2 gb

molecule MOL {
1 1

C	 -0.013265	 0.010505	 -0.191737
C	 0.025200	 1.234607	 0.501920
C	 0.007664	 1.238350	 1.893106
C	 -0.038477	 0.030472	 2.596050
C	 -0.072055	 -1.187355	 1.909759
C	 -0.064429	 -1.203540	 0.518572
C	 -0.000000	 -0.000000	 -1.658508
H	 0.017843	 2.176184	 -0.039944
H	 0.019669	 2.181895	 2.428935
H	 -0.048295	 0.038248	 3.681626
H	 -0.093870	 -2.123130	 2.458742
H	 -0.047394	 -2.152780	 -0.009528
N	 -0.712589	 -0.905950	 -2.322235
N	 0.724594	 0.896443	 -2.322147
H	 0.695221	 0.990001	 -3.330686
H	 1.388546	 1.475588	 -1.825113
H	 -1.377189	 -1.485970	 -1.827091
H	 -0.673431	 -1.006470	 -3.329771

	symmetry c1
}
set optking { dynamic_level = 1 }
set optking {
	frozen_dihedral = ("
		1 7 13 17
	")
}

ee,wfn = optimize('b3lyp-d3', return_wfn=True)
oeprop( wfn, 'DIPOLE', 'QUADRUPOLE', 'MULLIKEN_CHARGES')
f=open( 'psi4out.xyz', 'w' )
f.write( "18  " )
f.write( str(ee) + "\n" )
f.write( MOL.save_string_xyz() )
f.close()
--------------------------------------------------------------------------

    Molecular point group: c1
  Charge       = 1
  Multiplicity = 1
  Basis Set: 6-31G*
    Blend: 6-31G*
   => B3LYP Composite Functional <=
  Basis Set: (6-31G* AUX)
    Blend: CC-PVDZ-JKFIT
  @DF-RKS Final Energy:  -381.47050316603827
    Total Energy =                       -381.4705031660383270
    Molecular point group: c1
  Basis Set: 6-31G*
    Blend: 6-31G*
  Basis Set: (6-31G* AUX)
    Blend: CC-PVDZ-JKFIT
   => B3LYP Composite Functional <=
  Basis Set: 6-31G*
    Blend: 6-31G*
   => B3LYP Composite Functional <=
  Basis Set: (6-31G* AUX)
    Blend: CC-PVDZ-JKFIT
  @DF-RKS Final Energy:  -381.47050593402662
    Total Energy =                       -381.4705059340266189
  Basis Set: 6-31G*
    Blend: 6-31G*
  Basis Set: (6-31G* AUX)
    Blend: CC-PVDZ-JKFIT
   => B3LYP Composite Functional <=
  Charge       = 1
  Multiplicity = 1
  Basis Set: 6-31G*
    Blend: 6-31G*
   => B3LYP Composite Functional <=
  Basis Set: (6-31G* AUX)
    Blend: CC-PVDZ-JKFIT

    Orbital Energies (a.u.)
    -----------------------

    Doubly Occupied:

       1A    -14.568106     2A    -14.568034     3A    -10.497216
       4A    -10.373201     5A    -10.356137     6A    -10.356096
       7A    -10.342923     8A    -10.340400     9A    -10.340340
      10A     -1.183858    11A     -1.092012    12A     -1.014250
      13A     -0.926573    14A     -0.902176    15A     -0.845440
      16A     -0.785753    17A     -0.773393    18A     -0.741748
      19A     -0.732907    20A     -0.688765    21A     -0.669047
      22A     -0.625481    23A     -0.617381    24A     -0.586971
      25A     -0.579001    26A     -0.572864    27A     -0.518327
      28A     -0.505454    29A     -0.498064    30A     -0.472863
      31A     -0.411643    32A     -0.405678

  @DF-RKS Final Energy:  -381.47050709545687

   => Energetics <=

    Nuclear Repulsion Energy =            416.9212203740985387
    One-Electron Energy =               -1329.0513412095162948
    Two-Electron Energy =                 575.0775244198416658
    DFT Exchange-Correlation Energy =     -44.4059791198808114
    Empirical Dispersion Energy =          -0.0119315600000000
    PCM Polarization Energy =               0.0000000000000000
    EFP Energy =                            0.0000000000000000
    Total Energy =                       -381.4705070954569237
    Molecular point group: c1
  Basis Set: 6-31G*
    Blend: 6-31G*
  Basis Set: (6-31G* AUX)
    Blend: CC-PVDZ-JKFIT
   => B3LYP Composite Functional <=

  -Total Gradient:
     Atom            X                  Y                   Z
    ------   -----------------  -----------------  -----------------
       1       -0.000051783054     0.000018172354     0.000022780281
       2        0.000012865240    -0.000004521775    -0.000024599905
       3       -0.000012870137    -0.000019008830     0.000002486342
       4        0.000007395626     0.000006016049    -0.000003844193
       5       -0.000013698819    -0.000000193364    -0.000009293858
       6        0.000006322022     0.000033328857     0.000014232716
       7        0.000126870015    -0.000102895549    -0.000030587920
       8       -0.000004654381     0.000001902939     0.000008909882
       9       -0.000003022231     0.000001410489    -0.000002276684
      10        0.000000085943    -0.000000093116    -0.000000480322
      11       -0.000002149012    -0.000001050412     0.000000284970
      12        0.000003597260    -0.000014070646    -0.000001276098
      13       -0.000221224541     0.000238621840     0.000014312993
      14        0.000012288509    -0.000005870366    -0.000002407315
      15        0.000030854065    -0.000003780281    -0.000003272157
      16       -0.000013462011     0.000007668663    -0.000009811519
      17        0.000123509010    -0.000135178108     0.000025445156
      18       -0.000000690943    -0.000020086695    -0.000022354650

  **** Optimization is complete! (in 3 steps) ****
    Final optimized geometry and variables:
    Molecular point group: c1

    Geometry (in Angstrom), charge = 1, multiplicity = 1:

    C            0.002512715475    -0.001645470110    -0.191586968916
    C            0.040419118052     1.222380808816     0.502081890278
    C            0.022469678398     1.225931277553     1.893298659159
    C           -0.023291500318     0.018022759686     2.596131096614
    C           -0.056145654941    -1.199739721946     1.909720311797
    C           -0.048154329052    -1.215742593264     0.518534937213
    C            0.014965458240    -0.011729002331    -1.658574570023
    H            0.032744339707     2.164035312249    -0.039629851675
    H            0.033781977921     2.169452345704     2.429204144272
    H           -0.033455398990     0.025701093136     3.681709050964
    H           -0.077623230090    -2.135591684733     2.458603234914
    H           -0.030589124552    -2.165047434171    -0.009525309414
    N           -0.700779649039    -0.915264253265    -2.321870902874
    N            0.739840491090     0.884466683892    -2.322184030982
    H            0.711335355697     0.977677282351    -3.330805463377
    H            1.403866836102     1.463400189772    -1.825009074718
    H           -1.366900596900    -1.493409017470    -1.826560686093
    H           -0.653590980544    -1.024550691357    -3.328196939643

  Mulliken Charges: (a.u.)
   Center  Symbol    Alpha    Beta     Spin     Total
       1     C     2.95710  2.95710  0.00000  0.08580
       2     C     3.08203  3.08203  0.00000 -0.16406
       3     C     3.06248  3.06248  0.00000 -0.12496
       4     C     3.05149  3.05149  0.00000 -0.10297
       5     C     3.06249  3.06249  0.00000 -0.12497
       6     C     3.08220  3.08220  0.00000 -0.16440
       7     C     2.72186  2.72186  0.00000  0.55627
       8     H     0.41418  0.41418  0.00000  0.17163
       9     H     0.40545  0.40545  0.00000  0.18911
      10     H     0.40390  0.40390  0.00000  0.19221
      11     H     0.40545  0.40545  0.00000  0.18910
      12     H     0.41430  0.41430  0.00000  0.17141
      13     N     3.86317  3.86317  0.00000 -0.72635
      14     N     3.86330  3.86330  0.00000 -0.72660
      15     H     0.30569  0.30569  0.00000  0.38863
      16     H     0.29963  0.29963  0.00000  0.40073
      17     H     0.29962  0.29962  0.00000  0.40077
      18     H     0.30567  0.30567  0.00000  0.38866

   Total alpha = 32.00000, Total beta = 32.00000, Total charge =  1.00000

*** Psi4 exiting successfully. Buy a developer a beer!
