                               Psi4 1.1 release

  ==> Input File <==

--------------------------------------------------------------------------
set_num_threads(1)
set_memory(4203741184)

set { reference rks }
set { basis cc-pVDZ }

molecule MOL {
    0 1
    noreorient
    nocom
    symmetry c1
    O    1.141000   0.017000   0.083000
    C    2.558000   0.086000  -0.005000
    C    3.192000  -0.789000   1.067000
    O    2.199667  -1.234915   1.983408
    H    0.789000   0.590000  -0.620000
    H    2.874000   1.128000   0.115000
    H    2.871000  -0.243000  -1.001000
    H    3.958895  -0.230135   1.612416
    H    3.675829  -1.660615   0.611945
    H    2.657022  -1.785826   2.642353
}

set optking { frozen_dihedral = (" 1 2 3 4 ") }

energy, wfn = energy('B3LYP-D3', return_wfn=True)

import os
os.chdir(os.environ['HTMD_PSI4_WORKDIR'])

oeprop(wfn, 'DIPOLE', 'QUADRUPOLE', 'MULLIKEN_CHARGES')

with open('psi4out.xyz', 'w') as f:
    f.write('10 ' )
    f.write('%.12f\n' % energy)
    f.write(MOL.save_string_xyz())
--------------------------------------------------------------------------

    Molecular point group: c1

    Geometry (in Angstrom), charge = 0, multiplicity = 1:

       Center              X                  Y                   Z               Mass
    ------------   -----------------  -----------------  -----------------  -----------------
           O          1.141000000000     0.017000000000     0.083000000000    15.994914619560
           C          2.558000000000     0.086000000000    -0.005000000000    12.000000000000
           C          3.192000000000    -0.789000000000     1.067000000000    12.000000000000
           O          2.199667000000    -1.234915000000     1.983408000000    15.994914619560
           H          0.789000000000     0.590000000000    -0.620000000000     1.007825032070
           H          2.874000000000     1.128000000000     0.115000000000     1.007825032070
           H          2.871000000000    -0.243000000000    -1.001000000000     1.007825032070
           H          3.958895000000    -0.230135000000     1.612416000000     1.007825032070
           H          3.675829000000    -1.660615000000     0.611945000000     1.007825032070
           H          2.657022000000    -1.785826000000     2.642353000000     1.007825032070

  Charge       = 0
  Multiplicity = 1
  Basis Set: CC-PVDZ
    Blend: CC-PVDZ
   => B3LYP Composite Functional <=
  Basis Set: (CC-PVDZ AUX)
    Blend: CC-PVDZ-JKFIT

    Orbital Energies (a.u.)
    -----------------------

    Doubly Occupied:

       1A    -19.122073     2A    -19.122006     3A    -10.225686
       4A    -10.225500     5A     -1.016423     6A     -0.993702
       7A     -0.733967     8A     -0.599132     9A     -0.527181
      10A     -0.478369    11A     -0.459343    12A     -0.413584
      13A     -0.393366    14A     -0.326082    15A     -0.323791
      16A     -0.268018    17A     -0.242773

  @DF-RKS Final Energy:  -230.24437829875970

   => Energetics <=

    Nuclear Repulsion Energy =            133.2375761990753915
    One-Electron Energy =                -578.3885875768112328
    Two-Electron Energy =                 239.4516707281802326
    DFT Exchange-Correlation Energy =     -24.5410497592041246
    Empirical Dispersion Energy =          -0.0039878900000000
    PCM Polarization Energy =               0.0000000000000000
    EFP Energy =                            0.0000000000000000
    Total Energy =                       -230.2443782987596990

  Mulliken Charges: (a.u.)
   Center  Symbol    Alpha    Beta     Spin     Total
       1     O     4.12864  4.12864  0.00000 -0.25727
       2     C     2.93519  2.93519  0.00000  0.12961
       3     C     2.93532  2.93532  0.00000  0.12937
       4     O     4.12887  4.12887  0.00000 -0.25774
       5     H     0.43200  0.43200  0.00000  0.13599
       6     H     0.50180  0.50180  0.00000 -0.00361
       7     H     0.50234  0.50234  0.00000 -0.00467
       8     H     0.50221  0.50221  0.00000 -0.00443
       9     H     0.50168  0.50168  0.00000 -0.00336
      10     H     0.43195  0.43195  0.00000  0.13610

   Total alpha = 17.00000, Total beta = 17.00000, Total charge = -0.00000

*** Psi4 exiting successfully. Buy a developer a beer!
