                               Psi4 1.1 release

  ==> Input File <==

--------------------------------------------------------------------------
set {
	reference rks
	basis 6-31G*
}

set_num_threads( 8 )
memory 2 gb

molecule MOL {
1 1

C	 0.063936	 1.381860	 -2.146443
C	 1.259327	 2.114824	 -2.024507
C	 1.315248	 3.423539	 -2.493398
C	 0.185456	 4.008261	 -3.073826
C	 -1.004893	 3.284172	 -3.192113
C	 -1.070255	 1.971586	 -2.735423
C	 -0.000000	 -0.000000	 -1.658508
H	 2.151470	 1.650755	 -1.613463
H	 2.241274	 3.983890	 -2.415842
H	 0.232776	 5.030993	 -3.434953
H	 -1.883632	 3.745833	 -3.630541
H	 -2.009038	 1.427631	 -2.790533
N	 -0.712589	 -0.905950	 -2.322235
N	 0.654729	 -0.344574	 -0.553220
H	 0.718019	 -1.301817	 -0.226959
H	 1.058755	 0.370745	 0.037005
H	 -1.377189	 -1.485970	 -1.827091
H	 -0.673431	 -1.006470	 -3.329771

	symmetry c1
}
set optking { dynamic_level = 1 }
set optking {
	frozen_dihedral = ("
		1 7 13 17
	")
}

ee,wfn = optimize('b3lyp-d3', return_wfn=True)
oeprop( wfn, 'DIPOLE', 'QUADRUPOLE', 'MULLIKEN_CHARGES')
f=open( 'psi4out.xyz', 'w' )
f.write( "18  " )
f.write( str(ee) + "\n" )
f.write( MOL.save_string_xyz() )
f.close()
--------------------------------------------------------------------------

    Molecular point group: c1
  Charge       = 1
  Multiplicity = 1
  Basis Set: 6-31G*
    Blend: 6-31G*
   => B3LYP Composite Functional <=
  Basis Set: (6-31G* AUX)
    Blend: CC-PVDZ-JKFIT
  @DF-RKS Final Energy:  -381.45483208820116
    Total Energy =                       -381.4548320882012149
    Molecular point group: c1
  Basis Set: 6-31G*
    Blend: 6-31G*
  Basis Set: (6-31G* AUX)
    Blend: CC-PVDZ-JKFIT
   => B3LYP Composite Functional <=
  Basis Set: 6-31G*
    Blend: 6-31G*
   => B3LYP Composite Functional <=
  Basis Set: (6-31G* AUX)
    Blend: CC-PVDZ-JKFIT
  @DF-RKS Final Energy:  -381.46045135188513
    Total Energy =                       -381.4604513518851263
  Basis Set: 6-31G*
    Blend: 6-31G*
  Basis Set: (6-31G* AUX)
  @DF-RKS Final Energy:  -381.46271342317033
    Total Energy =                       -381.4627134231703280
  @DF-RKS Final Energy:  -381.46378237921539
    Total Energy =                       -381.4637823792153881
  @DF-RKS Final Energy:  -381.46381969850904
    Total Energy =                       -381.4638196985090985
   => B3LYP Composite Functional <=
  Basis Set: (6-31G* AUX)
    Blend: CC-PVDZ-JKFIT
  @DF-RKS Final Energy:  -381.46382701981997
    Total Energy =                       -381.4638270198199166
  Basis Set: 6-31G*
    Blend: 6-31G*
  Basis Set: (6-31G* AUX)
    Blend: CC-PVDZ-JKFIT
   => B3LYP Composite Functional <=
  Charge       = 1
  Multiplicity = 1
  Basis Set: 6-31G*
    Blend: 6-31G*
   => B3LYP Composite Functional <=
  Basis Set: (6-31G* AUX)
    Blend: CC-PVDZ-JKFIT

    Orbital Energies (a.u.)
    -----------------------

    Doubly Occupied:

       1A    -14.570445     2A    -14.556597     3A    -10.496037
       4A    -10.376136     5A    -10.361739     6A    -10.360531
       7A    -10.349108     8A    -10.344799     9A    -10.344649
      10A     -1.180658    11A     -1.087262    12A     -1.018043
      13A     -0.928923    14A     -0.906678    15A     -0.843540
      16A     -0.784167    17A     -0.771831    18A     -0.740063
      19A     -0.731126    20A     -0.683566    21A     -0.673233
      22A     -0.631418    23A     -0.615009    24A     -0.586693
      25A     -0.582493    26A     -0.569410    27A     -0.522423
      28A     -0.510070    29A     -0.501955    30A     -0.471034
      31A     -0.417295    32A     -0.410214

  @DF-RKS Final Energy:  -381.46382788919118

   => Energetics <=

    Nuclear Repulsion Energy =            416.6555702202639964
    One-Electron Energy =               -1328.4398605539847722
    Two-Electron Energy =                 574.7333239659662922
    DFT Exchange-Correlation Energy =     -44.4008826114367778
    Empirical Dispersion Energy =          -0.0119789100000000
    PCM Polarization Energy =               0.0000000000000000
    EFP Energy =                            0.0000000000000000
    Total Energy =                       -381.4638278891911796
    Molecular point group: c1
  Basis Set: 6-31G*
    Blend: 6-31G*
  Basis Set: (6-31G* AUX)
    Blend: CC-PVDZ-JKFIT
   => B3LYP Composite Functional <=

  -Total Gradient:
     Atom            X                  Y                   Z
    ------   -----------------  -----------------  -----------------
       1       -0.005704365477     0.001615481904     0.004163740712
       2        0.000002180066     0.000037578520     0.000044881918
       3        0.000000996765    -0.000029256064    -0.000014579231
       4       -0.000003338416     0.000010597385     0.000006805119
       5       -0.000008557961    -0.000013953053    -0.000006357004
       6       -0.000003810678     0.000016600860     0.000024677392
       7        0.006058373811    -0.000023351017    -0.007202966401
       8       -0.000004808805    -0.000010613465     0.000004500024
       9        0.000002251216    -0.000004045720    -0.000001832138
      10       -0.000003629790    -0.000001385584     0.000001468355
      11        0.000002833866    -0.000003766564    -0.000008198062
      12       -0.000004864257    -0.000006487165     0.000002856819
      13        0.007198450542    -0.008541858332     0.004619384784
      14        0.000104185777    -0.000011007037     0.000020034083
      15       -0.000010140001     0.000005522994    -0.000006060806
      16       -0.000023869259    -0.000011278373    -0.000003345012
      17       -0.007552937810     0.006907640098    -0.001577905720
      18       -0.000048574080     0.000038024758    -0.000054885685

  **** Optimization is complete! (in 7 steps) ****
    Final optimized geometry and variables:
    Molecular point group: c1

    Geometry (in Angstrom), charge = 1, multiplicity = 1:

    C            0.013039583891    -0.187842170683     0.042654560655
    C            1.184018809301     0.580011808390     0.210234904993
    C            1.217519880830     1.895669549650    -0.235914132863
    C            0.089759125695     2.454470964659    -0.847787152629
    C           -1.073453053849     1.697171140873    -1.020337770315
    C           -1.115113068848     0.377123105614    -0.585439192600
    C           -0.043301756333    -1.561139386455     0.533783067901
    H            2.076127507582     0.133376112809     0.640644092816
    H            2.123065008158     2.482369003990    -0.121030929883
    H            0.118894528536     3.483094748297    -1.194026591503
    H           -1.948204288065     2.138913250770    -1.486277365259
    H           -2.034046619922    -0.192762907621    -0.686697412551
    N           -0.778380629838    -2.507582672931    -0.082209141333
    N            0.585102966078    -1.897754363881     1.654589635025
    H            0.658543921445    -2.864297859859     1.952470766352
    H            0.998484372980    -1.190571641841     2.248890821171
    H           -1.417458866794    -3.083072164659     0.457354359805
    H           -1.134185908941    -2.273674253979    -1.002151410235

  Mulliken Charges: (a.u.)
   Center  Symbol    Alpha    Beta     Spin     Total
       1     C     2.94944  2.94944  0.00000  0.10112
       2     C     3.08184  3.08184  0.00000 -0.16368
       3     C     3.06219  3.06219  0.00000 -0.12439
       4     C     3.05040  3.05040  0.00000 -0.10079
       5     C     3.06225  3.06225  0.00000 -0.12449
       6     C     3.07994  3.07994  0.00000 -0.15988
       7     C     2.74394  2.74394  0.00000  0.51212
       8     H     0.41270  0.41270  0.00000  0.17459
       9     H     0.40412  0.40412  0.00000  0.19175
      10     H     0.40229  0.40229  0.00000  0.19541
      11     H     0.40432  0.40432  0.00000  0.19137
      12     H     0.41690  0.41690  0.00000  0.16619
      13     N     3.86337  3.86337  0.00000 -0.72673
      14     N     3.85281  3.85281  0.00000 -0.70562
      15     H     0.30210  0.30210  0.00000  0.39579
      16     H     0.30052  0.30052  0.00000  0.39896
      17     H     0.30489  0.30489  0.00000  0.39022
      18     H     0.30597  0.30597  0.00000  0.38806

   Total alpha = 32.00000, Total beta = 32.00000, Total charge =  1.00000

*** Psi4 exiting successfully. Buy a developer a beer!
