                               Psi4 1.1 release

  ==> Input File <==

--------------------------------------------------------------------------
set_num_threads( 8 )
memory 2.000000 gb

set { reference rks }
set { basis cc-pVDZ }

molecule MOL {
    0 1
    noreorient
    nocom
    symmetry c1
    O    1.050400   0.042900  -0.048100
    C    2.474100   0.047400  -0.029000
    C    3.002600  -1.068900  -0.932000
    N    3.181567  -2.325859  -0.207069
    H    0.760400   0.728400   0.578000
    H    2.809900  -0.097900   1.003200
    H    2.817400   1.026800  -0.378600
    H    3.954102  -0.763018  -1.382354
    H    2.305270  -1.222649  -1.763353
    H    3.918515  -2.212500   0.488300
    H    3.519085  -3.034788  -0.858031
}

set optking { frozen_dihedral = (" 1 2 3 4 ") }

energy, wfn = energy('B3LYP-D3', return_wfn=True)

import os
os.chdir(os.environ['HTMD_PSI4_WORKDIR'])

oeprop(wfn, 'DIPOLE', 'QUADRUPOLE', 'MULLIKEN_CHARGES')

with open('psi4out.xyz', 'w') as f:
    f.write('11 ' )
    f.write('%.12f\n' % energy)
    f.write(MOL.save_string_xyz())
--------------------------------------------------------------------------

    Molecular point group: c1

    Geometry (in Angstrom), charge = 0, multiplicity = 1:

       Center              X                  Y                   Z               Mass
    ------------   -----------------  -----------------  -----------------  -----------------
           O          1.050400000000     0.042900000000    -0.048100000000    15.994914619560
           C          2.474100000000     0.047400000000    -0.029000000000    12.000000000000
           C          3.002600000000    -1.068900000000    -0.932000000000    12.000000000000
           N          3.181567000000    -2.325859000000    -0.207069000000    14.003074004780
           H          0.760400000000     0.728400000000     0.578000000000     1.007825032070
           H          2.809900000000    -0.097900000000     1.003200000000     1.007825032070
           H          2.817400000000     1.026800000000    -0.378600000000     1.007825032070
           H          3.954102000000    -0.763018000000    -1.382354000000     1.007825032070
           H          2.305270000000    -1.222649000000    -1.763353000000     1.007825032070
           H          3.918515000000    -2.212500000000     0.488300000000     1.007825032070
           H          3.519085000000    -3.034788000000    -0.858031000000     1.007825032070

  Charge       = 0
  Multiplicity = 1
  Basis Set: CC-PVDZ
    Blend: CC-PVDZ
   => B3LYP Composite Functional <=
  Basis Set: (CC-PVDZ AUX)
    Blend: CC-PVDZ-JKFIT

    Orbital Energies (a.u.)
    -----------------------

    Doubly Occupied:

       1A    -19.122347     2A    -14.300143     3A    -10.224150
       4A    -10.202169     5A     -1.005705     6A     -0.873419
       7A     -0.713319     8A     -0.596586     9A     -0.507235
      10A     -0.482530    11A     -0.455679    12A     -0.400900
      13A     -0.388519    14A     -0.372549    15A     -0.320682
      16A     -0.257731    17A     -0.226351

  @DF-RKS Final Energy:  -210.38766141783390

   => Energetics <=

    Nuclear Repulsion Energy =            131.6769491879132659
    One-Electron Energy =                -546.3467839943447188
    Two-Electron Energy =                 227.7742687895671168
    DFT Exchange-Correlation Energy =     -23.4872655909695460
    Empirical Dispersion Energy =          -0.0048298100000000
    PCM Polarization Energy =               0.0000000000000000
    EFP Energy =                            0.0000000000000000
    Total Energy =                       -210.3876614178338968

  Mulliken Charges: (a.u.)
   Center  Symbol    Alpha    Beta     Spin     Total
       1     O     4.13739  4.13739  0.00000 -0.27478
       2     C     2.92290  2.92290  0.00000  0.15421
       3     C     2.97897  2.97897  0.00000  0.04206
       4     N     3.59003  3.59003  0.00000 -0.18006
       5     H     0.43266  0.43266  0.00000  0.13469
       6     H     0.50433  0.50433  0.00000 -0.00867
       7     H     0.50516  0.50516  0.00000 -0.01031
       8     H     0.50800  0.50800  0.00000 -0.01599
       9     H     0.48700  0.48700  0.00000  0.02600
      10     H     0.46725  0.46725  0.00000  0.06550
      11     H     0.46632  0.46632  0.00000  0.06735

   Total alpha = 17.00000, Total beta = 17.00000, Total charge =  0.00000

*** Psi4 exiting successfully. Buy a developer a beer!
