                               Psi4 1.1 release

  ==> Input File <==

--------------------------------------------------------------------------
set_num_threads(1)
set_memory('2004 MB')

set { scf_mem_safety_factor 0.7 }

set { reference rks }
set { basis cc-pVDZ }

molecule MOL {
    0 1
    noreorient
    nocom
    symmetry c1
    O    1.141000   0.017000   0.083000
    C    2.558000   0.086000  -0.005000
    C    3.192000  -0.789000   1.067000
    O    4.610000  -0.719000   0.979000
    H    0.789000   0.590000  -0.620000
    H    2.874000   1.128000   0.115000
    H    2.871000  -0.243000  -1.001000
    H    2.876000  -1.830000   0.947000
    H    2.879000  -0.459000   2.064000
    H    4.873609  -1.314956   0.256343
}

set optking { frozen_dihedral = (" 2 3 4 10 ") }

energy, wfn = energy('B3LYP-D3', return_wfn=True)

import os
os.chdir(os.environ['HTMD_PSI4_WORKDIR'])

oeprop(wfn, 'DIPOLE', 'QUADRUPOLE', 'MULLIKEN_CHARGES')

with open('psi4out.xyz', 'w') as f:
    f.write('10 ' )
    f.write('%.12f\n' % energy)
    f.write(MOL.save_string_xyz())
--------------------------------------------------------------------------

    Molecular point group: c1

    Geometry (in Angstrom), charge = 0, multiplicity = 1:

       Center              X                  Y                   Z               Mass
    ------------   -----------------  -----------------  -----------------  -----------------
           O          1.141000000000     0.017000000000     0.083000000000    15.994914619560
           C          2.558000000000     0.086000000000    -0.005000000000    12.000000000000
           C          3.192000000000    -0.789000000000     1.067000000000    12.000000000000
           O          4.610000000000    -0.719000000000     0.979000000000    15.994914619560
           H          0.789000000000     0.590000000000    -0.620000000000     1.007825032070
           H          2.874000000000     1.128000000000     0.115000000000     1.007825032070
           H          2.871000000000    -0.243000000000    -1.001000000000     1.007825032070
           H          2.876000000000    -1.830000000000     0.947000000000     1.007825032070
           H          2.879000000000    -0.459000000000     2.064000000000     1.007825032070
           H          4.873609000000    -1.314956000000     0.256343000000     1.007825032070

  Charge       = 0
  Multiplicity = 1
  Basis Set: CC-PVDZ
    Blend: CC-PVDZ
   => B3LYP Composite Functional <=
  Basis Set: (CC-PVDZ AUX)
    Blend: CC-PVDZ-JKFIT

    Orbital Energies (a.u.)
    -----------------------

    Doubly Occupied:

       1A    -19.135231     2A    -19.132201     3A    -10.227292
       4A    -10.225843     5A     -1.021289     6A     -1.010100
       7A     -0.731062     8A     -0.613476     9A     -0.521470
      10A     -0.495305    11A     -0.451723    12A     -0.429547
      13A     -0.397511    14A     -0.340112    15A     -0.325779
      16A     -0.270092    17A     -0.265577

  @DF-RKS Final Energy:  -230.25860794550275

   => Energetics <=

    Nuclear Repulsion Energy =            129.7737948239597188
    One-Electron Energy =                -571.2448246794151601
    Two-Electron Energy =                 235.7553474288813504
    DFT Exchange-Correlation Energy =     -24.5383110889286655
    Empirical Dispersion Energy =          -0.0046144300000000
    PCM Polarization Energy =               0.0000000000000000
    EFP Energy =                            0.0000000000000000
    Total Energy =                       -230.2586079455027175

  Mulliken Charges: (a.u.)
   Center  Symbol    Alpha    Beta     Spin     Total
       1     O     4.14039  4.14039  0.00000 -0.28078
       2     C     2.94073  2.94073  0.00000  0.11855
       3     C     2.93183  2.93183  0.00000  0.13634
       4     O     4.13942  4.13942  0.00000 -0.27885
       5     H     0.42820  0.42820  0.00000  0.14360
       6     H     0.49804  0.49804  0.00000  0.00391
       7     H     0.50807  0.50807  0.00000 -0.01615
       8     H     0.49703  0.49703  0.00000  0.00593
       9     H     0.48629  0.48629  0.00000  0.02741
      10     H     0.42999  0.42999  0.00000  0.14002

   Total alpha = 17.00000, Total beta = 17.00000, Total charge =  0.00000

*** Psi4 exiting successfully. Buy a developer a beer!
