                              Psi4 1.0.54 Driver

  ==> Input File <==

--------------------------------------------------------------------------
set_num_threads(1)
set_memory(3145728000)

set { reference rks }
set { basis 6-31G* }

molecule MOL {
    1 1
    noreorient
    nocom
    symmetry c1
    C    0.000000   0.000000  -0.177864
    C    0.036678   1.219374   0.524165
    C    0.031764   1.213119   1.915444
    C   -0.000000  -0.000000   2.610107
    C   -0.031764  -1.213119   1.915444
    C   -0.036677  -1.219374   0.524165
    C    0.000000  -0.000000  -1.644734
    H    0.018170   2.164705  -0.010853
    H    0.042402   2.152895   2.457886
    H   -0.000000  -0.000000   3.695756
    H   -0.042402  -2.152895   2.457886
    H   -0.018170  -2.164705  -0.010853
    N   -0.426604  -1.070765  -2.308460
    N    0.426604   1.070765  -2.308461
    H    0.360563   1.156065  -3.315997
    H    0.899563   1.815363  -1.813317
    H   -0.899563  -1.815363  -1.813316
    H   -0.360563  -1.156065  -3.315997
}

set optking { frozen_dihedral = (" 2 1 7 13 ") }

set optking { dynamic_level = 1
 geom_maxiter = 250
 print_trajectory_xyz_file = True }

energy, wfn = optimize('B3LYP-D3', return_wfn=True)

import os
os.chdir(os.environ['HTMD_PSI4_WORKDIR'])

oeprop(wfn, 'DIPOLE', 'QUADRUPOLE', 'MULLIKEN_CHARGES')

with open('psi4out.xyz', 'w') as f:
    f.write('18 ' )
    f.write('%.12f\n' % energy)
    f.write(MOL.save_string_xyz())
--------------------------------------------------------------------------

    Molecular point group: c1
  Charge       = 1
  Multiplicity = 1
  Basis Set: 6-31G*
   => B3LYP-D3 Composite Functional <=
  Basis Set:
  @DF-RKS Final Energy:  -381.46858126221781
    Total Energy =                       -381.4685812622177536
    Molecular point group: c1
  Basis Set: 6-31G*
  Basis Set:
   => B3LYP-D3 Composite Functional <=
  Basis Set: 6-31G*
   => B3LYP-D3 Composite Functional <=
  Basis Set:
  @DF-RKS Final Energy:  -381.46899750711322
    Total Energy =                       -381.4689975071131016
  Basis Set: 6-31G*
  Basis Set:
   => B3LYP-D3 Composite Functional <=
  Basis Set: 6-31G*
   => B3LYP-D3 Composite Functional <=
  Basis Set:
  @DF-RKS Final Energy:  -381.46926019903498
    Total Energy =                       -381.4692601990349203
  Basis Set: 6-31G*
  Basis Set:
   => B3LYP-D3 Composite Functional <=
  Basis Set:
  @DF-RKS Final Energy:  -381.46926987426212
    Total Energy =                       -381.4692698742621246
  Basis Set: 6-31G*
  Basis Set:
   => B3LYP-D3 Composite Functional <=
  Basis Set: 6-31G*
   => B3LYP-D3 Composite Functional <=
  Basis Set:
  @DF-RKS Final Energy:  -381.46927534020085
    Total Energy =                       -381.4692753402007952
  Basis Set: 6-31G*
  Basis Set:
   => B3LYP-D3 Composite Functional <=
  Charge       = 1
  Multiplicity = 1
  Basis Set: 6-31G*
   => B3LYP-D3 Composite Functional <=
  Basis Set:

    Orbital Energies (a.u.)
    -----------------------

    Doubly Occupied:

       1A    -14.566407     2A    -14.566149     3A    -10.497133
       4A    -10.375243     5A    -10.358568     6A    -10.358350
       7A    -10.345282     8A    -10.341990     9A    -10.341870
      10A     -1.183022    11A     -1.090134    12A     -1.015770
      13A     -0.927873    14A     -0.904123    15A     -0.846442
      16A     -0.785671    17A     -0.775223    18A     -0.737894
      19A     -0.735550    20A     -0.688685    21A     -0.669276
      22A     -0.628773    23A     -0.613723    24A     -0.592700
      25A     -0.580778    26A     -0.574781    27A     -0.518405
      28A     -0.507888    29A     -0.499693    30A     -0.471900
      31A     -0.413005    32A     -0.407223

  @DF-RKS Final Energy:  -381.46927593573020

   => Energetics <=

    Nuclear Repulsion Energy =            416.8679975713205863
    One-Electron Energy =               -1328.8875346682452800
    Two-Electron Energy =                 574.9685572698328997
    DFT Exchange-Correlation Energy =     -44.4065692586384202
    Empirical Dispersion Energy =          -0.0117268500000000
    PCM Polarization Energy =               0.0000000000000000
    EFP Energy =                            0.0000000000000000
    Total Energy =                       -381.4692759357302521
    Molecular point group: c1
  Basis Set: 6-31G*
  Basis Set:
   => B3LYP-D3 Composite Functional <=

  -Total Gradient:
     Atom            X                  Y                   Z
    ------   -----------------  -----------------  -----------------
       1       -0.003736398357    -0.000461875511    -0.000118836290
       2        0.003609386766    -0.000153186762     0.000098020175
       3        0.000012214788     0.000003460083    -0.000003471430
       4        0.000002718062    -0.000004082094     0.000012887313
       5        0.000005110470    -0.000003019806     0.000010657820
       6       -0.000012810918     0.000013797305    -0.000022420550
       7       -0.003390103792     0.002089829769    -0.000063635452
       8       -0.000003051808     0.000010187802    -0.000006704766
       9       -0.000002351064     0.000003214143    -0.000006105255
      10       -0.000001403657     0.000000025572    -0.000003616059
      11       -0.000000958719    -0.000000848692    -0.000005646440
      12       -0.000006501023    -0.000001766544    -0.000000898174
      13        0.003531850489    -0.001445802793     0.000078714570
      14        0.000012615463    -0.000009074385     0.000011707975
      15       -0.000009818197    -0.000001014239    -0.000000357288
      16       -0.000014678578    -0.000009440112     0.000006127545
      17        0.000002449082    -0.000010491235    -0.000002759437
      18        0.000009967232    -0.000009901092     0.000002753703

  **** Optimization is complete! (in 6 steps) ****
    Final optimized geometry and variables:
    Molecular point group: c1

    Geometry (in Angstrom), charge = 1, multiplicity = 1:

    C           -0.053897185211     0.005110137011    -0.176895591041
    C           -0.019086815601     1.221401674221     0.533533864616
    C            0.010511305320     1.215362652511     1.923434823864
    C            0.017430346049     0.002073467659     2.618382151100
    C           -0.001913831699    -1.209341865688     1.921150850780
    C           -0.030563331642    -1.212943507240     0.530822451238
    C           -0.025724757536     0.003522195512    -1.643142611004
    H           -0.081347578001     2.172488551544     0.012281830468
    H            0.018224492224     2.155514606581     2.465132521372
    H            0.041952669731     0.000920438524     3.703732195487
    H            0.022869080265    -2.150624697751     2.460389195551
    H            0.018931781001    -2.162284341110     0.005920374026
    N           -0.448352248504    -1.060339816318    -2.324834541669
    N            0.471235660610     1.044281605310    -2.308686397275
    H            0.444161244793     1.107405190753    -3.319219745088
    H            0.979889549096     1.768873981395    -1.820955012209
    H           -1.003599157893    -1.771443348372    -1.868526377563
    H           -0.360720223002    -1.129976924541    -3.331518982654

  Mulliken Charges: (a.u.)
   Center  Symbol    Alpha    Beta     Spin     Total
       1     C     2.94353  2.94353  0.00000  0.11294
       2     C     3.08709  3.08709  0.00000 -0.17418
       3     C     3.06226  3.06226  0.00000 -0.12452
       4     C     3.05124  3.05124  0.00000 -0.10249
       5     C     3.06154  3.06154  0.00000 -0.12309
       6     C     3.08381  3.08381  0.00000 -0.16763
       7     C     2.71253  2.71253  0.00000  0.57494
       8     H     0.41591  0.41591  0.00000  0.16818
       9     H     0.40512  0.40512  0.00000  0.18976
      10     H     0.40316  0.40316  0.00000  0.19369
      11     H     0.40509  0.40509  0.00000  0.18981
      12     H     0.41645  0.41645  0.00000  0.16709
      13     N     3.86981  3.86981  0.00000 -0.73961
      14     N     3.86912  3.86912  0.00000 -0.73824
      15     H     0.30586  0.30586  0.00000  0.38828
      16     H     0.30065  0.30065  0.00000  0.39870
      17     H     0.30091  0.30091  0.00000  0.39819
      18     H     0.30591  0.30591  0.00000  0.38818

   Total alpha = 32.00000, Total beta = 32.00000, Total charge =  1.00000

*** Psi4 exiting successfully. Buy a developer a beer!
