                               Psi4 1.1 release

  ==> Input File <==

--------------------------------------------------------------------------
set_num_threads(1)
set_memory(4203741184)

set { reference rks }
set { basis cc-pVDZ }

molecule MOL {
    0 1
    noreorient
    nocom
    symmetry c1
    O    1.050400   0.042900  -0.048100
    C    2.474100   0.047400  -0.029000
    C    3.002600  -1.068900  -0.932000
    N    4.462700  -1.072400  -1.006800
    H    0.760400   0.728400   0.578000
    H    2.809900  -0.097900   1.003200
    H    2.817400   1.026800  -0.378600
    H    2.581000  -0.963300  -1.938400
    H    2.653800  -2.036400  -0.553400
    H    4.790575  -2.025618  -1.159629
    H    4.838223  -0.790137  -0.101504
}

set optking { frozen_dihedral = (" 2 3 4 10 ") }

energy, wfn = energy('B3LYP-D3', return_wfn=True)

import os
os.chdir(os.environ['HTMD_PSI4_WORKDIR'])

oeprop(wfn, 'DIPOLE', 'QUADRUPOLE', 'MULLIKEN_CHARGES')

with open('psi4out.xyz', 'w') as f:
    f.write('11 ' )
    f.write('%.12f\n' % energy)
    f.write(MOL.save_string_xyz())
--------------------------------------------------------------------------

    Molecular point group: c1

    Geometry (in Angstrom), charge = 0, multiplicity = 1:

       Center              X                  Y                   Z               Mass
    ------------   -----------------  -----------------  -----------------  -----------------
           O          1.050400000000     0.042900000000    -0.048100000000    15.994914619560
           C          2.474100000000     0.047400000000    -0.029000000000    12.000000000000
           C          3.002600000000    -1.068900000000    -0.932000000000    12.000000000000
           N          4.462700000000    -1.072400000000    -1.006800000000    14.003074004780
           H          0.760400000000     0.728400000000     0.578000000000     1.007825032070
           H          2.809900000000    -0.097900000000     1.003200000000     1.007825032070
           H          2.817400000000     1.026800000000    -0.378600000000     1.007825032070
           H          2.581000000000    -0.963300000000    -1.938400000000     1.007825032070
           H          2.653800000000    -2.036400000000    -0.553400000000     1.007825032070
           H          4.790575000000    -2.025618000000    -1.159629000000     1.007825032070
           H          4.838223000000    -0.790137000000    -0.101504000000     1.007825032070

  Charge       = 0
  Multiplicity = 1
  Basis Set: CC-PVDZ
    Blend: CC-PVDZ
   => B3LYP Composite Functional <=
  Basis Set: (CC-PVDZ AUX)
    Blend: CC-PVDZ-JKFIT

    Orbital Energies (a.u.)
    -----------------------

    Doubly Occupied:

       1A    -19.129957     2A    -14.303760     3A    -10.228621
       4A    -10.201354     5A     -1.012336     6A     -0.877067
       7A     -0.712922     8A     -0.601452     9A     -0.508705
      10A     -0.473533    11A     -0.472116    12A     -0.410416
      13A     -0.379247    14A     -0.377313    15A     -0.325090
      16A     -0.263657    17A     -0.229054

  @DF-RKS Final Energy:  -210.38896285721196

   => Energetics <=

    Nuclear Repulsion Energy =            130.6015389141814467
    One-Electron Energy =                -544.0853468073346448
    Two-Electron Energy =                 226.5868640475194979
    DFT Exchange-Correlation Energy =     -23.4870960215782638
    Empirical Dispersion Energy =          -0.0049229900000000
    PCM Polarization Energy =               0.0000000000000000
    EFP Energy =                            0.0000000000000000
    Total Energy =                       -210.3889628572119648

  Mulliken Charges: (a.u.)
   Center  Symbol    Alpha    Beta     Spin     Total
       1     O     4.13773  4.13773  0.00000 -0.27546
       2     C     2.93880  2.93880  0.00000  0.12239
       3     C     2.97811  2.97811  0.00000  0.04378
       4     N     3.59298  3.59298  0.00000 -0.18595
       5     H     0.42992  0.42992  0.00000  0.14017
       6     H     0.50349  0.50349  0.00000 -0.00698
       7     H     0.49701  0.49701  0.00000  0.00597
       8     H     0.48949  0.48949  0.00000  0.02102
       9     H     0.50046  0.50046  0.00000 -0.00093
      10     H     0.46327  0.46327  0.00000  0.07346
      11     H     0.46873  0.46873  0.00000  0.06253

   Total alpha = 17.00000, Total beta = 17.00000, Total charge = -0.00000

*** Psi4 exiting successfully. Buy a developer a beer!
