                               Psi4 1.1 release

  ==> Input File <==

--------------------------------------------------------------------------
set_num_threads(1)
set_memory(4203741184)

set { reference rks }
set { basis cc-pVDZ }

molecule MOL {
    0 1
    noreorient
    nocom
    symmetry c1
    O    1.141000   0.017000   0.083000
    C    2.558000   0.086000  -0.005000
    C    3.192000  -0.789000   1.067000
    O    4.327056  -0.135838   1.622333
    H    0.789000   0.590000  -0.620000
    H    2.874000   1.128000   0.115000
    H    2.871000  -0.243000  -1.001000
    H    3.502350  -1.748989   0.642689
    H    2.471814  -0.995822   1.866646
    H    4.690659  -0.735488   2.296943
}

set optking { frozen_dihedral = (" 1 2 3 4 ") }

energy, wfn = energy('B3LYP-D3', return_wfn=True)

import os
os.chdir(os.environ['HTMD_PSI4_WORKDIR'])

oeprop(wfn, 'DIPOLE', 'QUADRUPOLE', 'MULLIKEN_CHARGES')

with open('psi4out.xyz', 'w') as f:
    f.write('10 ' )
    f.write('%.12f\n' % energy)
    f.write(MOL.save_string_xyz())
--------------------------------------------------------------------------

    Molecular point group: c1

    Geometry (in Angstrom), charge = 0, multiplicity = 1:

       Center              X                  Y                   Z               Mass
    ------------   -----------------  -----------------  -----------------  -----------------
           O          1.141000000000     0.017000000000     0.083000000000    15.994914619560
           C          2.558000000000     0.086000000000    -0.005000000000    12.000000000000
           C          3.192000000000    -0.789000000000     1.067000000000    12.000000000000
           O          4.327056000000    -0.135838000000     1.622333000000    15.994914619560
           H          0.789000000000     0.590000000000    -0.620000000000     1.007825032070
           H          2.874000000000     1.128000000000     0.115000000000     1.007825032070
           H          2.871000000000    -0.243000000000    -1.001000000000     1.007825032070
           H          3.502350000000    -1.748989000000     0.642689000000     1.007825032070
           H          2.471814000000    -0.995822000000     1.866646000000     1.007825032070
           H          4.690659000000    -0.735488000000     2.296943000000     1.007825032070

  Charge       = 0
  Multiplicity = 1
  Basis Set: CC-PVDZ
    Blend: CC-PVDZ
   => B3LYP Composite Functional <=
  Basis Set: (CC-PVDZ AUX)
    Blend: CC-PVDZ-JKFIT

    Orbital Energies (a.u.)
    -----------------------

    Doubly Occupied:

       1A    -19.130047     2A    -19.130012     3A    -10.225461
       4A    -10.225271     5A     -1.018015     6A     -1.006852
       7A     -0.732483     8A     -0.603328     9A     -0.523769
      10A     -0.497578    11A     -0.450694    12A     -0.411550
      13A     -0.400500    14A     -0.348261    15A     -0.320077
      16A     -0.264959    17A     -0.259152

  @DF-RKS Final Energy:  -230.25412672998195

   => Energetics <=

    Nuclear Repulsion Energy =            129.7499994159460925
    One-Electron Energy =                -571.2780771647521760
    Two-Electron Energy =                 235.8194423061125349
    DFT Exchange-Correlation Energy =     -24.5412038072884471
    Empirical Dispersion Energy =          -0.0042874800000000
    PCM Polarization Energy =               0.0000000000000000
    EFP Energy =                            0.0000000000000000
    Total Energy =                       -230.2541267299819765

  Mulliken Charges: (a.u.)
   Center  Symbol    Alpha    Beta     Spin     Total
       1     O     4.14053  4.14053  0.00000 -0.28107
       2     C     2.93462  2.93462  0.00000  0.13075
       3     C     2.93480  2.93480  0.00000  0.13040
       4     O     4.14076  4.14076  0.00000 -0.28153
       5     H     0.42918  0.42918  0.00000  0.14165
       6     H     0.49520  0.49520  0.00000  0.00959
       7     H     0.50040  0.50040  0.00000 -0.00080
       8     H     0.50026  0.50026  0.00000 -0.00052
       9     H     0.49511  0.49511  0.00000  0.00977
      10     H     0.42913  0.42913  0.00000  0.14175

   Total alpha = 17.00000, Total beta = 17.00000, Total charge =  0.00000

*** Psi4 exiting successfully. Buy a developer a beer!
