                               Psi4 1.1 release

  ==> Input File <==

--------------------------------------------------------------------------
set {
	reference rks
	basis 6-31G*
}

set_num_threads( 8 )
memory 2 gb

molecule MOL {
1 1

C	 -0.000000	 -0.000000	 -0.191639
C	 1.132584	 0.453291	 0.510391
C	 1.124888	 0.455298	 1.901670
C	 -0.000000	 0.000000	 2.596333
C	 -1.124888	 -0.455298	 1.901670
C	 -1.132584	 -0.453290	 0.510391
C	 -0.000000	 -0.000000	 -1.658508
H	 1.991885	 0.847745	 -0.024627
H	 1.990734	 0.820813	 2.444112
H	 -0.000000	 0.000000	 3.681982
H	 -1.990733	 -0.820814	 2.444112
H	 -1.991885	 -0.847745	 -0.024627
N	 -0.712589	 -0.905950	 -2.322235
N	 0.712590	 0.905950	 -2.322235
H	 0.673432	 1.006470	 -3.329771
H	 1.377190	 1.485970	 -1.827091
H	 -1.377189	 -1.485970	 -1.827091
H	 -0.673431	 -1.006470	 -3.329771

	symmetry c1
}
set optking { dynamic_level = 1 }
set optking {
	frozen_dihedral = ("
		2 1 7 13
	")
}

ee,wfn = optimize('b3lyp-d3', return_wfn=True)
oeprop( wfn, 'DIPOLE', 'QUADRUPOLE', 'MULLIKEN_CHARGES')
f=open( 'psi4out.xyz', 'w' )
f.write( "18  " )
f.write( str(ee) + "\n" )
f.write( MOL.save_string_xyz() )
f.close()
--------------------------------------------------------------------------

    Molecular point group: c1
  Charge       = 1
  Multiplicity = 1
  Basis Set: 6-31G*
    Blend: 6-31G*
   => B3LYP Composite Functional <=
  Basis Set: (6-31G* AUX)
    Blend: CC-PVDZ-JKFIT
  @DF-RKS Final Energy:  -381.46465687121986
    Total Energy =                       -381.4646568712198587
    Molecular point group: c1
  Basis Set: 6-31G*
    Blend: 6-31G*
  Basis Set: (6-31G* AUX)
    Blend: CC-PVDZ-JKFIT
   => B3LYP Composite Functional <=
  Basis Set: 6-31G*
    Blend: 6-31G*
   => B3LYP Composite Functional <=
  Basis Set: (6-31G* AUX)
    Blend: CC-PVDZ-JKFIT
  @DF-RKS Final Energy:  -381.46465687253493
    Total Energy =                       -381.4646568725349312
  Basis Set: 6-31G*
    Blend: 6-31G*
  Basis Set: (6-31G* AUX)
  @DF-RKS Final Energy:  -381.46681304427716
    Total Energy =                       -381.4668130442771599
  @DF-RKS Final Energy:  -381.46833621549172
    Total Energy =                       -381.4683362154917177
  @DF-RKS Final Energy:  -381.46943430477762
    Total Energy =                       -381.4694343047776783
  @DF-RKS Final Energy:  -381.47009215877284
    Total Energy =                       -381.4700921587728999
  @DF-RKS Final Energy:  -381.47029283533465
    Total Energy =                       -381.4702928353346465
   => B3LYP Composite Functional <=
  Basis Set: (6-31G* AUX)
    Blend: CC-PVDZ-JKFIT
  @DF-RKS Final Energy:  -381.47031566753094
    Total Energy =                       -381.4703156675309401
  Basis Set: 6-31G*
    Blend: 6-31G*
  Basis Set: (6-31G* AUX)
    Blend: CC-PVDZ-JKFIT
   => B3LYP Composite Functional <=
  Charge       = 1
  Multiplicity = 1
  Basis Set: 6-31G*
    Blend: 6-31G*
   => B3LYP Composite Functional <=
  Basis Set: (6-31G* AUX)
    Blend: CC-PVDZ-JKFIT

    Orbital Energies (a.u.)
    -----------------------

    Doubly Occupied:

       1A    -14.567306     2A    -14.567203     3A    -10.496997
       4A    -10.373946     5A    -10.357095     6A    -10.356951
       7A    -10.343962     8A    -10.341077     9A    -10.341010
      10A     -1.183401    11A     -1.091163    12A     -1.014855
      13A     -0.927099    14A     -0.902964    15A     -0.845730
      16A     -0.785618    17A     -0.774151    18A     -0.740069
      19A     -0.733857    20A     -0.688858    21A     -0.669168
      22A     -0.626784    23A     -0.615913    24A     -0.588948
      25A     -0.579729    26A     -0.573542    27A     -0.518388
      28A     -0.506454    29A     -0.498742    30A     -0.472407
      31A     -0.412282    32A     -0.406366

  @DF-RKS Final Energy:  -381.47031662355801

   => Energetics <=

    Nuclear Repulsion Energy =            416.9141603239617098
    One-Electron Energy =               -1329.0169095667952206
    Two-Electron Energy =                 575.0505316191703287
    DFT Exchange-Correlation Energy =     -44.4062364898948374
    Empirical Dispersion Energy =          -0.0118625100000000
    PCM Polarization Energy =               0.0000000000000000
    EFP Energy =                            0.0000000000000000
    Total Energy =                       -381.4703166235580056
    Molecular point group: c1
  Basis Set: 6-31G*
    Blend: 6-31G*
  Basis Set: (6-31G* AUX)
    Blend: CC-PVDZ-JKFIT
   => B3LYP Composite Functional <=

  -Total Gradient:
     Atom            X                  Y                   Z
    ------   -----------------  -----------------  -----------------
       1        0.000290801220    -0.001638418112     0.000068380269
       2       -0.000567982410     0.001392992551    -0.000013099610
       3       -0.000007143717     0.000005211116     0.000009397041
       4       -0.000003736677    -0.000006091209    -0.000005714318
       5        0.000008490238     0.000007812435     0.000022210109
       6        0.000002794042    -0.000005996811    -0.000038415727
       7        0.001482557053    -0.000720063381    -0.000088578296
       8       -0.000000210089     0.000004699665    -0.000002574716
       9        0.000001473086     0.000001552190    -0.000004776520
      10        0.000000118428     0.000001833984    -0.000002302965
      11       -0.000002468333    -0.000000609129    -0.000005027809
      12       -0.000002301283     0.000005327920     0.000013924192
      13       -0.001218028514     0.000905829567     0.000027256580
      14       -0.000024342751     0.000057613444     0.000019230663
      15        0.000020352129    -0.000028706681     0.000014618912
      16       -0.000005864797    -0.000063645425    -0.000017305318
      17        0.000034364878     0.000061166431    -0.000035512534
      18       -0.000010557561     0.000021004271     0.000015913605

  **** Optimization is complete! (in 8 steps) ****
    Final optimized geometry and variables:
    Molecular point group: c1

    Geometry (in Angstrom), charge = 1, multiplicity = 1:

    C            0.009172422711    -0.017962073112    -0.191985064999
    C            1.143983542143     0.426455655486     0.513321433278
    C            1.134503649408     0.433353598433     1.904132390716
    C           -0.002970379218     0.010156282005     2.598664379415
    C           -1.135681341636    -0.423067581058     1.902915162106
    C           -1.135293517614    -0.439107585779     0.511947382322
    C            0.004256223706    -0.006630646244    -1.658358656871
    H            2.048780901428     0.710310337184    -0.016780131808
    H            2.016249155204     0.758467109517     2.446637804954
    H           -0.007194006560     0.019808033777     3.684261446279
    H           -2.022923087264    -0.735139254910     2.444129540516
    H           -2.037616362909    -0.727244148844    -0.019717698624
    N           -0.711997962024    -0.904427789867    -2.330932284657
    N            0.698594141054     0.914955777505    -2.321194773641
    H            0.793693618145     0.908997499452    -3.329824195632
    H            1.094198915067     1.704076174513    -1.827839018015
    H           -1.093402958905    -1.709562276847    -1.852353254992
    H           -0.819521640325    -0.875930315561    -3.337920665948

  Mulliken Charges: (a.u.)
   Center  Symbol    Alpha    Beta     Spin     Total
       1     C     2.95190  2.95190  0.00000  0.09620
       2     C     3.08423  3.08423  0.00000 -0.16845
       3     C     3.06252  3.06252  0.00000 -0.12503
       4     C     3.05133  3.05133  0.00000 -0.10266
       5     C     3.06215  3.06215  0.00000 -0.12429
       6     C     3.08276  3.08276  0.00000 -0.16552
       7     C     2.71803  2.71803  0.00000  0.56393
       8     H     0.41471  0.41471  0.00000  0.17059
       9     H     0.40530  0.40530  0.00000  0.18941
      10     H     0.40358  0.40358  0.00000  0.19283
      11     H     0.40528  0.40528  0.00000  0.18943
      12     H     0.41483  0.41483  0.00000  0.17034
      13     N     3.86602  3.86602  0.00000 -0.73203
      14     N     3.86553  3.86553  0.00000 -0.73107
      15     H     0.30576  0.30576  0.00000  0.38848
      16     H     0.30012  0.30012  0.00000  0.39977
      17     H     0.30019  0.30019  0.00000  0.39961
      18     H     0.30577  0.30577  0.00000  0.38847

   Total alpha = 32.00000, Total beta = 32.00000, Total charge =  1.00000

*** Psi4 exiting successfully. Buy a developer a beer!
