                               Psi4 1.1 release

  ==> Input File <==

--------------------------------------------------------------------------
set_num_threads(1)
set_memory(3145728000)

set { reference rks }
set { basis 6-31G* }

molecule MOL {
    1 1
    noreorient
    nocom
    symmetry c1
    C    0.000000   0.000000  -0.177864
    C    0.036678   1.219374   0.524165
    C    0.031764   1.213119   1.915444
    C   -0.000000  -0.000000   2.610107
    C   -0.031764  -1.213119   1.915444
    C   -0.036677  -1.219374   0.524165
    C    0.000000  -0.000000  -1.644734
    H    0.018170   2.164705  -0.010853
    H    0.042402   2.152895   2.457886
    H   -0.000000  -0.000000   3.695756
    H   -0.042402  -2.152895   2.457886
    H   -0.018170  -2.164705  -0.010853
    N    0.546038  -1.015073  -2.308460
    N   -0.546038   1.015072  -2.308461
    H   -0.653832   1.019311  -3.315997
    H   -0.812421   1.855998  -1.813317
    H    0.812421  -1.855998  -1.813316
    H    0.653831  -1.019312  -3.315997
}

set optking { frozen_dihedral = (" 2 1 7 13 ") }

set optking { dynamic_level = 1
 geom_maxiter = 250
 print_trajectory_xyz_file = True }

energy, wfn = optimize('B3LYP-D3', return_wfn=True)

import os
os.chdir(os.environ['HTMD_PSI4_WORKDIR'])

oeprop(wfn, 'DIPOLE', 'QUADRUPOLE', 'MULLIKEN_CHARGES')

with open('psi4out.xyz', 'w') as f:
    f.write('18 ' )
    f.write('%.12f\n' % energy)
    f.write(MOL.save_string_xyz())
--------------------------------------------------------------------------

    Molecular point group: c1
  Charge       = 1
  Multiplicity = 1
  Basis Set: 6-31G*
    Blend: 6-31G*
   => B3LYP Composite Functional <=
  Basis Set: (6-31G* AUX)
    Blend: CC-PVDZ-JKFIT
  @DF-RKS Final Energy:  -381.46465686149230
    Total Energy =                       -381.4646568614922444
    Molecular point group: c1
  Basis Set: 6-31G*
    Blend: 6-31G*
  Basis Set: (6-31G* AUX)
    Blend: CC-PVDZ-JKFIT
   => B3LYP Composite Functional <=
  Basis Set: 6-31G*
    Blend: 6-31G*
   => B3LYP Composite Functional <=
  Basis Set: (6-31G* AUX)
    Blend: CC-PVDZ-JKFIT
  @DF-RKS Final Energy:  -381.46465686149224
    Total Energy =                       -381.4646568614922444
  Basis Set: 6-31G*
    Blend: 6-31G*
  Basis Set: (6-31G* AUX)
  @DF-RKS Final Energy:  -381.46681304003283
    Total Energy =                       -381.4668130400328323
  @DF-RKS Final Energy:  -381.46833622183351
    Total Energy =                       -381.4683362218334537
  @DF-RKS Final Energy:  -381.46943430295732
    Total Energy =                       -381.4694343029573247
  @DF-RKS Final Energy:  -381.47009216000566
    Total Energy =                       -381.4700921600057200
  @DF-RKS Final Energy:  -381.47029283653734
    Total Energy =                       -381.4702928365373964
   => B3LYP Composite Functional <=
  Basis Set: (6-31G* AUX)
    Blend: CC-PVDZ-JKFIT
  @DF-RKS Final Energy:  -381.47031566912796
    Total Energy =                       -381.4703156691279560
  Basis Set: 6-31G*
    Blend: 6-31G*
  Basis Set: (6-31G* AUX)
    Blend: CC-PVDZ-JKFIT
   => B3LYP Composite Functional <=
  Charge       = 1
  Multiplicity = 1
  Basis Set: 6-31G*
    Blend: 6-31G*
   => B3LYP Composite Functional <=
  Basis Set: (6-31G* AUX)
    Blend: CC-PVDZ-JKFIT

    Orbital Energies (a.u.)
    -----------------------

    Doubly Occupied:

       1A    -14.567306     2A    -14.567203     3A    -10.496997
       4A    -10.373946     5A    -10.357095     6A    -10.356951
       7A    -10.343962     8A    -10.341077     9A    -10.341010
      10A     -1.183401    11A     -1.091163    12A     -1.014855
      13A     -0.927099    14A     -0.902964    15A     -0.845730
      16A     -0.785618    17A     -0.774151    18A     -0.740068
      19A     -0.733857    20A     -0.688858    21A     -0.669168
      22A     -0.626784    23A     -0.615913    24A     -0.588948
      25A     -0.579729    26A     -0.573542    27A     -0.518388
      28A     -0.506454    29A     -0.498741    30A     -0.472407
      31A     -0.412282    32A     -0.406366

  @DF-RKS Final Energy:  -381.47031662405487

   => Energetics <=

    Nuclear Repulsion Energy =            416.9141185406265322
    One-Electron Energy =               -1329.0168285713680234
    Two-Electron Energy =                 575.0504914928874314
    DFT Exchange-Correlation Energy =     -44.4062355762007854
    Empirical Dispersion Energy =          -0.0118625100000000
    PCM Polarization Energy =               0.0000000000000000
    EFP Energy =                            0.0000000000000000
    Total Energy =                       -381.4703166240548740
    Molecular point group: c1
  Basis Set: 6-31G*
    Blend: 6-31G*
  Basis Set: (6-31G* AUX)
    Blend: CC-PVDZ-JKFIT
   => B3LYP Composite Functional <=

  -Total Gradient:
     Atom            X                  Y                   Z
    ------   -----------------  -----------------  -----------------
       1        0.001618289841    -0.000387368112     0.000067823810
       2       -0.001503913937     0.000035560224    -0.000013129477
       3       -0.000007625995    -0.000004366088     0.000009433339
       4        0.000004099384    -0.000005822341    -0.000005578423
       5       -0.000003777615     0.000010842369     0.000022351908
       6        0.000006621618     0.000000128591    -0.000038530041
       7        0.001252049229     0.001071631209    -0.000088339752
       8       -0.000004389025     0.000001721770    -0.000002583850
       9       -0.000000831036     0.000002044287    -0.000004725286
      10       -0.000001637133     0.000000827420    -0.000002199426
      11       -0.000000443523    -0.000002674526    -0.000004932016
      12       -0.000005818489    -0.000000140752     0.000013836708
      13       -0.001316857914    -0.000754965795     0.000027250240
      14       -0.000062502901     0.000000640916     0.000019264782
      15        0.000034453618     0.000007202010     0.000014612046
      16        0.000055998132    -0.000030778644    -0.000017299576
      17       -0.000042307634     0.000055875805    -0.000035483022
      18       -0.000023466486    -0.000001299194     0.000015851600

  **** Optimization is complete! (in 8 steps) ****
    Final optimized geometry and variables:
    Molecular point group: c1

    Geometry (in Angstrom), charge = 1, multiplicity = 1:

    C            0.023064406916     0.001363517982    -0.177435600924
    C            0.068766188053     1.219236495788     0.527871289044
    C            0.058656705688     1.213299439980     1.918682418259
    C           -0.007563518961     0.001458551140     2.613214528580
    C           -0.062689451847    -1.210019301389     1.917465190608
    C           -0.047828944267    -1.216068547579     0.526497058038
    C            0.010712124970     0.001380078556    -1.643808868406
    H            0.169825641171     2.162114612625    -0.002230081815
    H            0.112684681463     2.151518508890     2.461188002715
    H           -0.018098919112     0.001440293451     3.698811749690
    H           -0.130869189149    -2.148069819507     2.458679593711
    H           -0.143974923307    -2.158387816579    -0.005168231558
    N            0.547811965026    -1.013796825094    -2.316382235093
    N           -0.556949333701     1.005962970486    -2.306645400381
    H           -0.513511638961     1.090771999842    -3.315274887871
    H           -1.122453380554     1.683767986976    -1.813289822697
    H            1.133668595480    -1.684977414898    -1.837803019393
    H            0.478748991092    -1.100996730671    -3.323370682510

  Mulliken Charges: (a.u.)
   Center  Symbol    Alpha    Beta     Spin     Total
       1     C     2.95190  2.95190  0.00000  0.09620
       2     C     3.08423  3.08423  0.00000 -0.16845
       3     C     3.06252  3.06252  0.00000 -0.12503
       4     C     3.05133  3.05133  0.00000 -0.10266
       5     C     3.06215  3.06215  0.00000 -0.12429
       6     C     3.08276  3.08276  0.00000 -0.16552
       7     C     2.71803  2.71803  0.00000  0.56393
       8     H     0.41471  0.41471  0.00000  0.17059
       9     H     0.40530  0.40530  0.00000  0.18941
      10     H     0.40358  0.40358  0.00000  0.19283
      11     H     0.40528  0.40528  0.00000  0.18943
      12     H     0.41483  0.41483  0.00000  0.17034
      13     N     3.86602  3.86602  0.00000 -0.73203
      14     N     3.86553  3.86553  0.00000 -0.73107
      15     H     0.30576  0.30576  0.00000  0.38848
      16     H     0.30012  0.30012  0.00000  0.39977
      17     H     0.30019  0.30019  0.00000  0.39961
      18     H     0.30577  0.30577  0.00000  0.38847

   Total alpha = 32.00000, Total beta = 32.00000, Total charge =  1.00000

*** Psi4 exiting successfully. Buy a developer a beer!
