                               Psi4 1.1 release

  ==> Input File <==

--------------------------------------------------------------------------
set_num_threads(1)
set_memory(4203741184)

set { reference rks }
set { basis cc-pVDZ }

molecule MOL {
    0 1
    noreorient
    nocom
    symmetry c1
    O    1.050400   0.042900  -0.048100
    C    2.474100   0.047400  -0.029000
    C    3.002600  -1.068900  -0.932000
    N    4.462700  -1.072400  -1.006800
    H    0.760400   0.728400   0.578000
    H    2.809900  -0.097900   1.003200
    H    2.817400   1.026800  -0.378600
    H    2.581000  -0.963300  -1.938400
    H    2.653800  -2.036400  -0.553400
    H    4.842130  -1.526612  -0.176616
    H    4.795162  -0.108740  -0.973950
}

set optking { frozen_dihedral = (" 2 3 4 10 ") }

energy, wfn = energy('B3LYP-D3', return_wfn=True)

import os
os.chdir(os.environ['HTMD_PSI4_WORKDIR'])

oeprop(wfn, 'DIPOLE', 'QUADRUPOLE', 'MULLIKEN_CHARGES')

with open('psi4out.xyz', 'w') as f:
    f.write('11 ' )
    f.write('%.12f\n' % energy)
    f.write(MOL.save_string_xyz())
--------------------------------------------------------------------------

    Molecular point group: c1

    Geometry (in Angstrom), charge = 0, multiplicity = 1:

       Center              X                  Y                   Z               Mass
    ------------   -----------------  -----------------  -----------------  -----------------
           O          1.050400000000     0.042900000000    -0.048100000000    15.994914619560
           C          2.474100000000     0.047400000000    -0.029000000000    12.000000000000
           C          3.002600000000    -1.068900000000    -0.932000000000    12.000000000000
           N          4.462700000000    -1.072400000000    -1.006800000000    14.003074004780
           H          0.760400000000     0.728400000000     0.578000000000     1.007825032070
           H          2.809900000000    -0.097900000000     1.003200000000     1.007825032070
           H          2.817400000000     1.026800000000    -0.378600000000     1.007825032070
           H          2.581000000000    -0.963300000000    -1.938400000000     1.007825032070
           H          2.653800000000    -2.036400000000    -0.553400000000     1.007825032070
           H          4.842130000000    -1.526612000000    -0.176616000000     1.007825032070
           H          4.795162000000    -0.108740000000    -0.973950000000     1.007825032070

  Charge       = 0
  Multiplicity = 1
  Basis Set: CC-PVDZ
    Blend: CC-PVDZ
   => B3LYP Composite Functional <=
  Basis Set: (CC-PVDZ AUX)
    Blend: CC-PVDZ-JKFIT

    Orbital Energies (a.u.)
    -----------------------

    Doubly Occupied:

       1A    -19.128874     2A    -14.307551     3A    -10.225660
       4A    -10.202555     5A     -1.011562     6A     -0.879817
       7A     -0.710977     8A     -0.605433     9A     -0.505585
      10A     -0.498182    11A     -0.442895    12A     -0.417630
      13A     -0.400982    14A     -0.353049    15A     -0.331249
      16A     -0.263921    17A     -0.235672

  @DF-RKS Final Energy:  -210.39208287328603

   => Energetics <=

    Nuclear Repulsion Energy =            130.8741852685577101
    One-Electron Energy =                -544.6072041583660166
    Two-Electron Energy =                 226.8322585844315711
    DFT Exchange-Correlation Energy =     -23.4862293379093039
    Empirical Dispersion Energy =          -0.0050932300000000
    PCM Polarization Energy =               0.0000000000000000
    EFP Energy =                            0.0000000000000000
    Total Energy =                       -210.3920828732860286

  Mulliken Charges: (a.u.)
   Center  Symbol    Alpha    Beta     Spin     Total
       1     O     4.13840  4.13840  0.00000 -0.27680
       2     C     2.94291  2.94291  0.00000  0.11417
       3     C     2.97798  2.97798  0.00000  0.04405
       4     N     3.59027  3.59027  0.00000 -0.18054
       5     H     0.43087  0.43087  0.00000  0.13825
       6     H     0.50630  0.50630  0.00000 -0.01260
       7     H     0.50287  0.50287  0.00000 -0.00575
       8     H     0.48881  0.48881  0.00000  0.02238
       9     H     0.49032  0.49032  0.00000  0.01937
      10     H     0.46436  0.46436  0.00000  0.07127
      11     H     0.46690  0.46690  0.00000  0.06619

   Total alpha = 17.00000, Total beta = 17.00000, Total charge = -0.00000

*** Psi4 exiting successfully. Buy a developer a beer!
