                               Psi4 1.1 release

  ==> Input File <==

--------------------------------------------------------------------------
set_num_threads(1)
set_memory(4203741184)

set { reference rks }
set { basis cc-pVDZ }

molecule MOL {
    0 1
    noreorient
    nocom
    symmetry c1
    O    1.141000   0.017000   0.083000
    C    2.558000   0.086000  -0.005000
    C    3.192000  -0.789000   1.067000
    O    2.463831  -2.003719   1.199654
    H    0.789000   0.590000  -0.620000
    H    2.874000   1.128000   0.115000
    H    2.871000  -0.243000  -1.001000
    H    3.200127  -0.268550   2.029810
    H    4.230500  -1.021492   0.805576
    H    2.909379  -2.520798   1.893198
}

set optking { frozen_dihedral = (" 1 2 3 4 ") }

energy, wfn = energy('B3LYP-D3', return_wfn=True)

import os
os.chdir(os.environ['HTMD_PSI4_WORKDIR'])

oeprop(wfn, 'DIPOLE', 'QUADRUPOLE', 'MULLIKEN_CHARGES')

with open('psi4out.xyz', 'w') as f:
    f.write('10 ' )
    f.write('%.12f\n' % energy)
    f.write(MOL.save_string_xyz())
--------------------------------------------------------------------------

    Molecular point group: c1

    Geometry (in Angstrom), charge = 0, multiplicity = 1:

       Center              X                  Y                   Z               Mass
    ------------   -----------------  -----------------  -----------------  -----------------
           O          1.141000000000     0.017000000000     0.083000000000    15.994914619560
           C          2.558000000000     0.086000000000    -0.005000000000    12.000000000000
           C          3.192000000000    -0.789000000000     1.067000000000    12.000000000000
           O          2.463831000000    -2.003719000000     1.199654000000    15.994914619560
           H          0.789000000000     0.590000000000    -0.620000000000     1.007825032070
           H          2.874000000000     1.128000000000     0.115000000000     1.007825032070
           H          2.871000000000    -0.243000000000    -1.001000000000     1.007825032070
           H          3.200127000000    -0.268550000000     2.029810000000     1.007825032070
           H          4.230500000000    -1.021492000000     0.805576000000     1.007825032070
           H          2.909379000000    -2.520798000000     1.893198000000     1.007825032070

  Charge       = 0
  Multiplicity = 1
  Basis Set: CC-PVDZ
    Blend: CC-PVDZ
   => B3LYP Composite Functional <=
  Basis Set: (CC-PVDZ AUX)
    Blend: CC-PVDZ-JKFIT

    Orbital Energies (a.u.)
    -----------------------

    Doubly Occupied:

       1A    -19.123614     2A    -19.123571     3A    -10.227002
       4A    -10.226811     5A     -1.016439     6A     -0.996465
       7A     -0.733987     8A     -0.600783     9A     -0.523858
      10A     -0.491313    11A     -0.448369    12A     -0.414234
      13A     -0.398870    14A     -0.335087    15A     -0.320396
      16A     -0.261213    17A     -0.253319

  @DF-RKS Final Energy:  -230.25165414276555

   => Energetics <=

    Nuclear Repulsion Energy =            132.5265673942415106
    One-Electron Energy =                -576.9349078125150072
    Two-Electron Energy =                 238.6979435628090016
    DFT Exchange-Correlation Energy =     -24.5370714073010525
    Empirical Dispersion Energy =          -0.0041858800000000
    PCM Polarization Energy =               0.0000000000000000
    EFP Energy =                            0.0000000000000000
    Total Energy =                       -230.2516541427655454

  Mulliken Charges: (a.u.)
   Center  Symbol    Alpha    Beta     Spin     Total
       1     O     4.13185  4.13185  0.00000 -0.26370
       2     C     2.93413  2.93413  0.00000  0.13174
       3     C     2.93430  2.93430  0.00000  0.13140
       4     O     4.13207  4.13207  0.00000 -0.26414
       5     H     0.43078  0.43078  0.00000  0.13844
       6     H     0.50300  0.50300  0.00000 -0.00600
       7     H     0.50019  0.50019  0.00000 -0.00038
       8     H     0.50007  0.50007  0.00000 -0.00014
       9     H     0.50289  0.50289  0.00000 -0.00578
      10     H     0.43073  0.43073  0.00000  0.13854

   Total alpha = 17.00000, Total beta = 17.00000, Total charge = -0.00000

*** Psi4 exiting successfully. Buy a developer a beer!
