                              Psi4 1.0.54 Driver

  ==> Input File <==

--------------------------------------------------------------------------
set_num_threads(1)
set_memory(3145728000)

set { reference rks }
set { basis 6-31G* }

molecule MOL {
    1 1
    noreorient
    nocom
    symmetry c1
    C    0.000000   0.000000  -0.177864
    C    0.036678   1.219374   0.524165
    C    0.031764   1.213119   1.915444
    C   -0.000000  -0.000000   2.610107
    C   -0.031764  -1.213119   1.915444
    C   -0.036677  -1.219374   0.524165
    C    0.000000  -0.000000  -1.644734
    H    0.018170   2.164705  -0.010853
    H    0.042402   2.152895   2.457886
    H   -0.000000  -0.000000   3.695756
    H   -0.042402  -2.152895   2.457886
    H   -0.018170  -2.164705  -0.010853
    N   -0.712590  -0.905950  -2.308460
    N    0.712590   0.905950  -2.308461
    H    0.673432   1.006469  -3.315997
    H    1.377190   1.485970  -1.813317
    H   -1.336789  -0.612787  -3.048538
    H   -0.615450  -1.902805  -2.154799
}

set optking { frozen_dihedral = (" 1 7 13 17 ") }

set optking { dynamic_level = 1
 geom_maxiter = 250
 print_trajectory_xyz_file = True }

energy, wfn = optimize('B3LYP-D3', return_wfn=True)

import os
os.chdir(os.environ['HTMD_PSI4_WORKDIR'])

oeprop(wfn, 'DIPOLE', 'QUADRUPOLE', 'MULLIKEN_CHARGES')

with open('psi4out.xyz', 'w') as f:
    f.write('18 ' )
    f.write('%.12f\n' % energy)
    f.write(MOL.save_string_xyz())
--------------------------------------------------------------------------

    Molecular point group: c1
  Charge       = 1
  Multiplicity = 1
  Basis Set: 6-31G*
   => B3LYP-D3 Composite Functional <=
  Basis Set:
  @DF-RKS Final Energy:  -381.43962700150047
    Total Energy =                       -381.4396270015005257
    Molecular point group: c1
  Basis Set: 6-31G*
  Basis Set:
   => B3LYP-D3 Composite Functional <=
  Basis Set: 6-31G*
   => B3LYP-D3 Composite Functional <=
  Basis Set:
  @DF-RKS Final Energy:  -381.44853869964896
    Total Energy =                       -381.4485386996489069
  Basis Set: 6-31G*
  Basis Set:
   => B3LYP-D3 Composite Functional <=
  Basis Set: 6-31G*
   => B3LYP-D3 Composite Functional <=
  Basis Set:
  @DF-RKS Final Energy:  -381.45367349626122
    Total Energy =                       -381.4536734962612172
  Basis Set: 6-31G*
  Basis Set:
  @DF-RKS Final Energy:  -379.96991332977859
    Total Energy =                       -379.9699133297784783
  @DF-RKS Final Energy:  -380.38201215169880
    Total Energy =                       -380.3820121516986887
  @DF-RKS Final Energy:  -379.96991332977916
    Total Energy =                       -379.9699133297791036
  @DF-RKS Final Energy:  -380.06393633795932
    Total Energy =                       -380.0639363379594329
  @DF-RKS Final Energy:  -380.15929790808684
    Total Energy =                       -380.1592979080867849
  @DF-RKS Final Energy:  -380.25559615141549
    Total Energy =                       -380.2555961514154887
  @DF-RKS Final Energy:  -380.35231221578493
    Total Energy =                       -380.3523122157850480
  @DF-RKS Final Energy:  -380.44892015362001
    Total Energy =                       -380.4489201536200653
  @DF-RKS Final Energy:  -380.54486369251327
    Total Energy =                       -380.5448636925133883
  @DF-RKS Final Energy:  -380.63957093009606
    Total Energy =                       -380.6395709300961698
  @DF-RKS Final Energy:  -380.73250524802114
    Total Energy =                       -380.7325052480209706
  @DF-RKS Final Energy:  -380.82312116389113
    Total Energy =                       -380.8231211638910167
  @DF-RKS Final Energy:  -380.91084941692321
    Total Energy =                       -380.9108494169233268
  @DF-RKS Final Energy:  -380.99507244756791
    Total Energy =                       -380.9950724475680204
  @DF-RKS Final Energy:  -381.07511192525993
    Total Energy =                       -381.0751119252599892
  @DF-RKS Final Energy:  -381.15023682663713
    Total Energy =                       -381.1502368266371832
  @DF-RKS Final Energy:  -381.21966217049805
    Total Energy =                       -381.2196621704980544
  @DF-RKS Final Energy:  -381.45880022286570
    Total Energy =                       -381.4588002228657615
  @DF-RKS Final Energy:  -381.45879359875585
    Total Energy =                       -381.4587935987558467
  @DF-RKS Final Energy:  -381.45885625164732
    Total Energy =                       -381.4588562516473758
  @DF-RKS Final Energy:  -381.45859299212793
    Total Energy =                       -381.4585929921279899
  @DF-RKS Final Energy:  -381.45885440250879
    Total Energy =                       -381.4588544025087344
  @DF-RKS Final Energy:  -381.45885625164652
    Total Energy =                       -381.4588562516465799
  @DF-RKS Final Energy:  -381.45889326677974
    Total Energy =                       -381.4588932667797962
  @DF-RKS Final Energy:  -381.45889973900614
    Total Energy =                       -381.4588997390061422
  @DF-RKS Final Energy:  -381.45890210952570
    Total Energy =                       -381.4589021095256953
  @DF-RKS Final Energy:  -381.45890364720617
    Total Energy =                       -381.4589036472061707
  @DF-RKS Final Energy:  -381.45879526250980
    Total Energy =                       -381.4587952625097955
  @DF-RKS Final Energy:  -381.45887756946496
    Total Energy =                       -381.4588775694649598
  @DF-RKS Final Energy:  -381.45890364720458
    Total Energy =                       -381.4589036472045223
  @DF-RKS Final Energy:  -381.45890686115479
    Total Energy =                       -381.4589068611547873
  @DF-RKS Final Energy:  -381.45878133007835
    Total Energy =                       -381.4587813300784660
  @DF-RKS Final Energy:  -381.45887792562036
    Total Energy =                       -381.4588779256203566
  @DF-RKS Final Energy:  -381.45884920430075
    Total Energy =                       -381.4588492043008614
   => B3LYP-D3 Composite Functional <=
  Basis Set:
  @DF-RKS Final Energy:  -381.45888668013646
    Total Energy =                       -381.4588866801364020
  Basis Set: 6-31G*
  Basis Set:
   => B3LYP-D3 Composite Functional <=
  Basis Set: 6-31G*
   => B3LYP-D3 Composite Functional <=
  Basis Set:
  @DF-RKS Final Energy:  -381.45890860336459
    Total Energy =                       -381.4589086033645344
  Basis Set: 6-31G*
  Basis Set:
   => B3LYP-D3 Composite Functional <=
  Charge       = 1
  Multiplicity = 1
  Basis Set: 6-31G*
   => B3LYP-D3 Composite Functional <=
  Basis Set:

    Orbital Energies (a.u.)
    -----------------------

    Doubly Occupied:

       1A    -14.575224     2A    -14.557704     3A    -10.501665
       4A    -10.379051     5A    -10.361612     6A    -10.360412
       7A    -10.346563     8A    -10.344395     9A    -10.344111
      10A     -1.185246    11A     -1.092069    12A     -1.018346
      13A     -0.929514    14A     -0.906524    15A     -0.845647
      16A     -0.786110    17A     -0.775726    18A     -0.739429
      19A     -0.731065    20A     -0.677175    21A     -0.671541
      22A     -0.634257    23A     -0.612968    24A     -0.596911
      25A     -0.580496    26A     -0.577851    27A     -0.519564
      28A     -0.511440    29A     -0.502304    30A     -0.474461
      31A     -0.413635    32A     -0.409551

  @DF-RKS Final Energy:  -381.45890875581341

   => Energetics <=

    Nuclear Repulsion Energy =            416.5735347879301003
    One-Electron Energy =               -1328.1962830334614409
    Two-Electron Energy =                 574.5752663749481144
    DFT Exchange-Correlation Energy =     -44.3996183552300039
    Empirical Dispersion Energy =          -0.0118085300000000
    PCM Polarization Energy =               0.0000000000000000
    EFP Energy =                            0.0000000000000000
    Total Energy =                       -381.4589087558131837
    Molecular point group: c1
  Basis Set: 6-31G*
  Basis Set:
   => B3LYP-D3 Composite Functional <=

  -Total Gradient:
     Atom            X                  Y                   Z
    ------   -----------------  -----------------  -----------------
       1       -0.008911033211     0.001145259015     0.002597634516
       2        0.000109782273     0.000033083704     0.000022501119
       3       -0.000035481096     0.000030723945    -0.000011784066
       4       -0.000081210355    -0.000044054182     0.000006730792
       5        0.000031702097    -0.000006735924    -0.000031971116
       6       -0.000024312032     0.000011448268     0.000009714591
       7        0.011222483770    -0.004613096517    -0.001699836016
       8       -0.000046656148    -0.000010589144     0.000019676415
       9       -0.000003374726     0.000015870893     0.000018343451
      10        0.000033535378     0.000008486398     0.000012366182
      11        0.000009459994    -0.000005412754    -0.000007881420
      12        0.000015996982    -0.000036771645    -0.000017478986
      13        0.005730782651     0.011532598903    -0.007325080564
      14       -0.000042095693    -0.000001533934     0.000001489441
      15        0.000008062006    -0.000021224826    -0.000025056622
      16        0.000027668670     0.000076103037     0.000067541621
      17       -0.008017952948    -0.008088431202     0.006393364679
      18       -0.000021679964    -0.000024211068    -0.000043593557

  **** Optimization is complete! (in 6 steps) ****
    Final optimized geometry and variables:
    Molecular point group: c1

    Geometry (in Angstrom), charge = 1, multiplicity = 1:

    C            0.043290066117     0.078596243313    -0.130556621603
    C           -0.243842818000     0.567321034067     1.158684191062
    C           -0.043237730927    -0.250063384105     2.266631272385
    C            0.465407633971    -1.541815764593     2.103984484851
    C            0.766684220385    -2.025971389414     0.827072645159
    C            0.551807116899    -1.225470452155    -0.289348430850
    C           -0.200439175532     0.923166492958    -1.305013335737
    H           -0.682154236614     1.551372543934     1.297911867958
    H           -0.291283381495     0.118936730165     3.256541294735
    H            0.626672502838    -2.172221161929     2.972932786507
    H            1.175463211503    -3.023426648832     0.702970022514
    H            0.829688611181    -1.598744785605    -1.271780772294
    N           -0.613440525717     0.393787365545    -2.479648086593
    N           -0.114581695490     2.241496987645    -1.209351134096
    H           -0.293842920266     2.847319488723    -2.002580952296
    H            0.259429736608     2.675699743111    -0.375277694890
    H           -1.418615079568     0.812100015888    -2.938357392819
    H           -0.720944126391    -0.615369428090    -2.465123593931

  Mulliken Charges: (a.u.)
   Center  Symbol    Alpha    Beta     Spin     Total
       1     C     2.94465  2.94465  0.00000  0.11070
       2     C     3.08386  3.08386  0.00000 -0.16772
       3     C     3.06208  3.06208  0.00000 -0.12416
       4     C     3.05130  3.05130  0.00000 -0.10261
       5     C     3.06216  3.06216  0.00000 -0.12432
       6     C     3.08750  3.08750  0.00000 -0.17500
       7     C     2.74672  2.74672  0.00000  0.50657
       8     H     0.41593  0.41593  0.00000  0.16814
       9     H     0.40461  0.40461  0.00000  0.19078
      10     H     0.40289  0.40289  0.00000  0.19422
      11     H     0.40424  0.40424  0.00000  0.19152
      12     H     0.41129  0.41129  0.00000  0.17742
      13     N     3.85744  3.85744  0.00000 -0.71487
      14     N     3.85324  3.85324  0.00000 -0.70648
      15     H     0.30115  0.30115  0.00000  0.39771
      16     H     0.29860  0.29860  0.00000  0.40280
      17     H     0.30476  0.30476  0.00000  0.39047
      18     H     0.30758  0.30758  0.00000  0.38483

   Total alpha = 32.00000, Total beta = 32.00000, Total charge =  1.00000

*** Psi4 exiting successfully. Buy a developer a beer!
