                               Psi4 1.1 release

  ==> Input File <==

--------------------------------------------------------------------------
set_num_threads(1)
set_memory(3145728000)

set { reference rks }
set { basis 6-31G* }

molecule MOL {
    1 1
    noreorient
    nocom
    symmetry c1
    C    0.000000   0.000000  -0.177864
    C    0.036678   1.219374   0.524165
    C    0.031764   1.213119   1.915444
    C   -0.000000  -0.000000   2.610107
    C   -0.031764  -1.213119   1.915444
    C   -0.036677  -1.219374   0.524165
    C    0.000000  -0.000000  -1.644734
    H    0.018170   2.164705  -0.010853
    H    0.042402   2.152895   2.457886
    H   -0.000000  -0.000000   3.695756
    H   -0.042402  -2.152895   2.457886
    H   -0.018170  -2.164705  -0.010853
    N   -0.361477   1.094470  -2.308461
    N    0.361477  -1.094470  -2.308460
    H    0.466897  -1.117363  -3.315997
    H    0.477788  -1.968877  -1.813316
    H   -0.477788   1.968877  -1.813317
    H   -0.466897   1.117362  -3.315997
}

set optking { frozen_dihedral = (" 2 1 7 13 ") }

set optking { dynamic_level = 1
 geom_maxiter = 250
 print_trajectory_xyz_file = True }

energy, wfn = optimize('B3LYP-D3', return_wfn=True)

import os
os.chdir(os.environ['HTMD_PSI4_WORKDIR'])

oeprop(wfn, 'DIPOLE', 'QUADRUPOLE', 'MULLIKEN_CHARGES')

with open('psi4out.xyz', 'w') as f:
    f.write('18 ' )
    f.write('%.12f\n' % energy)
    f.write(MOL.save_string_xyz())
--------------------------------------------------------------------------

    Molecular point group: c1
  Charge       = 1
  Multiplicity = 1
  Basis Set: 6-31G*
    Blend: 6-31G*
   => B3LYP Composite Functional <=
  Basis Set: (6-31G* AUX)
    Blend: CC-PVDZ-JKFIT
  @DF-RKS Final Energy:  -381.46358803905679
    Total Energy =                       -381.4635880390568445
    Molecular point group: c1
  Basis Set: 6-31G*
    Blend: 6-31G*
  Basis Set: (6-31G* AUX)
    Blend: CC-PVDZ-JKFIT
   => B3LYP Composite Functional <=
  Basis Set: 6-31G*
    Blend: 6-31G*
   => B3LYP Composite Functional <=
  Basis Set: (6-31G* AUX)
    Blend: CC-PVDZ-JKFIT
  @DF-RKS Final Energy:  -381.46667114338510
    Total Energy =                       -381.4666711433850992
  Basis Set: 6-31G*
    Blend: 6-31G*
  Basis Set: (6-31G* AUX)
  @DF-RKS Final Energy:  -381.46838652936157
    Total Energy =                       -381.4683865293615668
  @DF-RKS Final Energy:  -381.46667114338709
    Total Energy =                       -381.4666711433870887
  @DF-RKS Final Energy:  -381.46808515766787
    Total Energy =                       -381.4680851576678720
  @DF-RKS Final Energy:  -381.46884659126681
    Total Energy =                       -381.4688465912668107
  @DF-RKS Final Energy:  -381.46921030105830
    Total Energy =                       -381.4692103010583537
  @DF-RKS Final Energy:  -381.46926910721282
    Total Energy =                       -381.4692691072128810
  @DF-RKS Final Energy:  -381.46927874041330
    Total Energy =                       -381.4692787404133583
  @DF-RKS Final Energy:  -381.46928110530183
    Total Energy =                       -381.4692811053017749
  @DF-RKS Final Energy:  -381.46890482128441
    Total Energy =                       -381.4689048212844682
   => B3LYP Composite Functional <=
  Basis Set: (6-31G* AUX)
    Blend: CC-PVDZ-JKFIT
  @DF-RKS Final Energy:  -381.46918708018779
    Total Energy =                       -381.4691870801877371
  Basis Set: 6-31G*
    Blend: 6-31G*
  Basis Set: (6-31G* AUX)
    Blend: CC-PVDZ-JKFIT
   => B3LYP Composite Functional <=
  Charge       = 1
  Multiplicity = 1
  Basis Set: 6-31G*
    Blend: 6-31G*
   => B3LYP Composite Functional <=
  Basis Set: (6-31G* AUX)
    Blend: CC-PVDZ-JKFIT

    Orbital Energies (a.u.)
    -----------------------

    Doubly Occupied:

       1A    -14.566329     2A    -14.566178     3A    -10.497088
       4A    -10.375225     5A    -10.358655     6A    -10.358287
       7A    -10.345308     8A    -10.341970     9A    -10.341915
      10A     -1.182992    11A     -1.090106    12A     -1.015776
      13A     -0.927867    14A     -0.904133    15A     -0.846435
      16A     -0.785678    17A     -0.775196    18A     -0.737892
      19A     -0.735540    20A     -0.688699    21A     -0.669286
      22A     -0.628749    23A     -0.613736    24A     -0.592648
      25A     -0.580780    26A     -0.574796    27A     -0.518416
      28A     -0.507879    29A     -0.499707    30A     -0.471865
      31A     -0.413028    32A     -0.407235

  @DF-RKS Final Energy:  -381.46928110530234

   => Energetics <=

    Nuclear Repulsion Energy =            416.8475275749921138
    One-Electron Energy =               -1328.8468559750101576
    Two-Electron Energy =                 574.9483475853394339
    DFT Exchange-Correlation Energy =     -44.4065731606237506
    Empirical Dispersion Energy =          -0.0117271300000000
    PCM Polarization Energy =               0.0000000000000000
    EFP Energy =                            0.0000000000000000
    Total Energy =                       -381.4692811053023433
    Molecular point group: c1
  Basis Set: 6-31G*
    Blend: 6-31G*
  Basis Set: (6-31G* AUX)
    Blend: CC-PVDZ-JKFIT
   => B3LYP Composite Functional <=

  -Total Gradient:
     Atom            X                  Y                   Z
    ------   -----------------  -----------------  -----------------
       1        0.006971281696     0.000386375154    -0.000153107536
       2       -0.003562935398     0.000106471872     0.000091830201
       3       -0.000007030305     0.000000890881     0.000013835808
       4       -0.000002681314     0.000005659026    -0.000005486416
       5       -0.000002669932     0.000001860864     0.000004914526
       6        0.000010320700    -0.000003494601    -0.000025615328
       7       -0.007081096159    -0.001679470651     0.000159499188
       8        0.000004699453     0.000003497539     0.000005278083
       9       -0.000002057332     0.000002741306    -0.000002087751
      10        0.000002510016     0.000001346827    -0.000000350753
      11       -0.000001270862    -0.000001539914    -0.000003222540
      12        0.000018229069    -0.000003334695    -0.000001103855
      13        0.003538664941     0.001241627357    -0.000056114072
      14        0.000102453724    -0.000051141714     0.000038537155
      15       -0.000034872626     0.000000738663     0.000004936079
      16       -0.000042923005     0.000049670819    -0.000039233597
      17        0.000052703396    -0.000053530518    -0.000042723544
      18        0.000036550466    -0.000007828951    -0.000005873828

  **** Optimization is complete! (in 1 steps) ****
    Final optimized geometry and variables:
    Molecular point group: c1

    Geometry (in Angstrom), charge = 1, multiplicity = 1:

    C            0.034365243244    -0.001525499083    -0.176887793019
    C            0.092575528445     1.214699964839     0.531970809988
    C            0.080285103515     1.210747099550     1.922208445545
    C           -0.004694387409     0.001409179574     2.618886566993
    C           -0.081455839257    -1.208682241408     1.923287498277
    C           -0.070758502258    -1.214266497620     0.532784723066
    C           -0.005706183147    -0.004734341276    -1.642840692390
    H            0.215498046466     2.158697443689     0.009082827576
    H            0.146564691137     2.149218365938     2.462836057230
    H           -0.015382944595     0.002624982128     3.704468862390
    H           -0.167288111503    -2.145466484639     2.464086697661
    H           -0.195359831016    -2.157717305972     0.009273456185
    N           -0.381939362402     1.084021938052    -2.311903821794
    N            0.385798889758    -1.080560931304    -2.323318501055
    H            0.303278873545    -1.148060334947    -3.330522848295
    H            0.863794607324    -1.837651298062    -1.854236337435
    H           -0.862312203793     1.835359477573    -1.835982555841
    H           -0.337262618055     1.141885482968    -3.322192395078

  Mulliken Charges: (a.u.)
   Center  Symbol    Alpha    Beta     Spin     Total
       1     C     2.94355  2.94355  0.00000  0.11290
       2     C     3.08604  3.08604  0.00000 -0.17209
       3     C     3.06203  3.06203  0.00000 -0.12406
       4     C     3.05129  3.05129  0.00000 -0.10258
       5     C     3.06162  3.06162  0.00000 -0.12324
       6     C     3.08503  3.08503  0.00000 -0.17005
       7     C     2.71247  2.71247  0.00000  0.57506
       8     H     0.41591  0.41591  0.00000  0.16817
       9     H     0.40511  0.40511  0.00000  0.18978
      10     H     0.40315  0.40315  0.00000  0.19370
      11     H     0.40510  0.40510  0.00000  0.18981
      12     H     0.41646  0.41646  0.00000  0.16707
      13     N     3.87020  3.87020  0.00000 -0.74040
      14     N     3.86874  3.86874  0.00000 -0.73749
      15     H     0.30585  0.30585  0.00000  0.38830
      16     H     0.30040  0.30040  0.00000  0.39921
      17     H     0.30113  0.30113  0.00000  0.39774
      18     H     0.30592  0.30592  0.00000  0.38816

   Total alpha = 32.00000, Total beta = 32.00000, Total charge =  1.00000

*** Psi4 exiting successfully. Buy a developer a beer!
