                               Psi4 1.1 release

  ==> Input File <==

--------------------------------------------------------------------------
set_num_threads(1)
set_memory(4203741184)

set { reference rks }
set { basis cc-pVDZ }

molecule MOL {
    0 1
    noreorient
    nocom
    symmetry c1
    O    1.050400   0.042900  -0.048100
    C    2.474100   0.047400  -0.029000
    C    3.002600  -1.068900  -0.932000
    N    3.616887  -2.152529  -0.166560
    H    0.760400   0.728400   0.578000
    H    2.809900  -0.097900   1.003200
    H    2.817400   1.026800  -0.378600
    H    3.730326  -0.658938  -1.641989
    H    2.178442  -1.468287  -1.533921
    H    4.455064  -1.804596   0.298071
    H    3.935920  -2.872275  -0.814970
}

set optking { frozen_dihedral = (" 1 2 3 4 ") }

energy, wfn = energy('B3LYP-D3', return_wfn=True)

import os
os.chdir(os.environ['HTMD_PSI4_WORKDIR'])

oeprop(wfn, 'DIPOLE', 'QUADRUPOLE', 'MULLIKEN_CHARGES')

with open('psi4out.xyz', 'w') as f:
    f.write('11 ' )
    f.write('%.12f\n' % energy)
    f.write(MOL.save_string_xyz())
--------------------------------------------------------------------------

    Molecular point group: c1

    Geometry (in Angstrom), charge = 0, multiplicity = 1:

       Center              X                  Y                   Z               Mass
    ------------   -----------------  -----------------  -----------------  -----------------
           O          1.050400000000     0.042900000000    -0.048100000000    15.994914619560
           C          2.474100000000     0.047400000000    -0.029000000000    12.000000000000
           C          3.002600000000    -1.068900000000    -0.932000000000    12.000000000000
           N          3.616887000000    -2.152529000000    -0.166560000000    14.003074004780
           H          0.760400000000     0.728400000000     0.578000000000     1.007825032070
           H          2.809900000000    -0.097900000000     1.003200000000     1.007825032070
           H          2.817400000000     1.026800000000    -0.378600000000     1.007825032070
           H          3.730326000000    -0.658938000000    -1.641989000000     1.007825032070
           H          2.178442000000    -1.468287000000    -1.533921000000     1.007825032070
           H          4.455064000000    -1.804596000000     0.298071000000     1.007825032070
           H          3.935920000000    -2.872275000000    -0.814970000000     1.007825032070

  Charge       = 0
  Multiplicity = 1
  Basis Set: CC-PVDZ
    Blend: CC-PVDZ
   => B3LYP Composite Functional <=
  Basis Set: (CC-PVDZ AUX)
    Blend: CC-PVDZ-JKFIT

    Orbital Energies (a.u.)
    -----------------------

    Doubly Occupied:

       1A    -19.123701     2A    -14.302101     3A    -10.222830
       4A    -10.201155     5A     -1.006740     6A     -0.874888
       7A     -0.712786     8A     -0.596844     9A     -0.507678
      10A     -0.479172    11A     -0.462929    12A     -0.396143
      13A     -0.389590    14A     -0.372204    15A     -0.322263
      16A     -0.257215    17A     -0.228467

  @DF-RKS Final Energy:  -210.38605085778482

   => Energetics <=

    Nuclear Repulsion Energy =            131.1864488435153930
    One-Electron Energy =                -545.3480284370759819
    Two-Electron Energy =                 227.2693873694719855
    DFT Exchange-Correlation Energy =     -23.4891423736962075
    Empirical Dispersion Energy =          -0.0047162600000000
    PCM Polarization Energy =               0.0000000000000000
    EFP Energy =                            0.0000000000000000
    Total Energy =                       -210.3860508577848236

  Mulliken Charges: (a.u.)
   Center  Symbol    Alpha    Beta     Spin     Total
       1     O     4.13946  4.13946  0.00000 -0.27892
       2     C     2.92327  2.92327  0.00000  0.15345
       3     C     2.98069  2.98069  0.00000  0.03863
       4     N     3.59144  3.59144  0.00000 -0.18288
       5     H     0.43234  0.43234  0.00000  0.13532
       6     H     0.50253  0.50253  0.00000 -0.00506
       7     H     0.50507  0.50507  0.00000 -0.01015
       8     H     0.50682  0.50682  0.00000 -0.01365
       9     H     0.48556  0.48556  0.00000  0.02887
      10     H     0.46681  0.46681  0.00000  0.06638
      11     H     0.46600  0.46600  0.00000  0.06800

   Total alpha = 17.00000, Total beta = 17.00000, Total charge =  0.00000

*** Psi4 exiting successfully. Buy a developer a beer!
