                               Psi4 1.1 release

  ==> Input File <==

--------------------------------------------------------------------------
set {
	reference rks
	basis cc-pvdz
}

set_num_threads( 8 )
memory 2 gb

molecule MOL {
0 1

O	 1.014300	 -0.002300	 0.060500
O	 2.462400	 -0.107500	 -0.002400
H	 0.875012	 -0.745605	 0.677830
H	 2.655500	 0.713700	 0.488700

	symmetry c1
}
set optking { dynamic_level = 1 }
set optking {
	frozen_dihedral = ("
		3 1 2 4
	")
}

ee,wfn = energy('b3lyp-d3', return_wfn=True)
oeprop( wfn, 'DIPOLE', 'QUADRUPOLE', 'MULLIKEN_CHARGES')
f=open( 'psi4out.xyz', 'w' )
f.write( "4  " )
f.write( str(ee) + "\n" )
f.write( MOL.save_string_xyz() )
f.close()
--------------------------------------------------------------------------

    Molecular point group: c1

    Geometry (in Angstrom), charge = 0, multiplicity = 1:

       Center              X                  Y                   Z               Mass
    ------------   -----------------  -----------------  -----------------  -----------------
           O         -0.725644833590     0.050291415252    -0.001400691218    15.994914619560
           O          0.722455166410    -0.054908584748    -0.064300691218    15.994914619560
           H         -0.864932833590    -0.693013584748     0.615929308782     1.007825032070
           H          0.915555166410     0.766291415252     0.426799308782     1.007825032070

  Charge       = 0
  Multiplicity = 1
  Basis Set: CC-PVDZ
    Blend: CC-PVDZ
   => B3LYP Composite Functional <=
  Basis Set: (CC-PVDZ AUX)
    Blend: CC-PVDZ-JKFIT

    Orbital Energies (a.u.)
    -----------------------

    Doubly Occupied:

       1A    -19.188324     2A    -19.188283     3A     -1.112843
       4A     -0.886492     5A     -0.515394     6A     -0.485561
       7A     -0.414651     8A     -0.308200     9A     -0.273107

  @DF-RKS Final Energy:  -151.55007859848175

   => Energetics <=

    Nuclear Repulsion Energy =             36.8054881883347633
    One-Electron Energy =                -281.5811969446478429
    Two-Electron Energy =                 107.6879964460893717
    DFT Exchange-Correlation Energy =     -14.4620578182580513
    Empirical Dispersion Energy =          -0.0003084700000000
    PCM Polarization Energy =               0.0000000000000000
    EFP Energy =                            0.0000000000000000
    Total Energy =                       -151.5500785984817469

  Mulliken Charges: (a.u.)
   Center  Symbol    Alpha    Beta     Spin     Total
       1     O     4.09022  4.09022  0.00000 -0.18044
       2     O     4.09020  4.09020  0.00000 -0.18040
       3     H     0.40978  0.40978  0.00000  0.18044
       4     H     0.40980  0.40980  0.00000  0.18040

   Total alpha =  9.00000, Total beta =  9.00000, Total charge =  0.00000

*** Psi4 exiting successfully. Buy a developer a beer!
