                               Psi4 1.1 release

  ==> Input File <==

--------------------------------------------------------------------------
set {
	reference rks
	basis 6-31G*
}

set_num_threads( 8 )
memory 2 gb

molecule MOL {
1 1

C	 -0.000000	 -0.000000	 -0.191639
C	 -0.249733	 1.194090	 0.510391
C	 -0.253046	 1.186860	 1.901670
C	 -0.000000	 0.000000	 2.596333
C	 0.253046	 -1.186860	 1.901670
C	 0.249732	 -1.194090	 0.510391
C	 -0.000000	 -0.000000	 -1.658508
H	 -0.488979	 2.108833	 -0.024627
H	 -0.462656	 2.103023	 2.444112
H	 -0.000000	 0.000000	 3.681982
H	 0.462656	 -2.103023	 2.444112
H	 0.488979	 -2.108833	 -0.024627
N	 -0.712589	 -0.905950	 -2.322235
N	 0.712590	 0.905950	 -2.322235
H	 0.673432	 1.006470	 -3.329771
H	 1.377190	 1.485970	 -1.827091
H	 -1.377189	 -1.485970	 -1.827091
H	 -0.673431	 -1.006470	 -3.329771

	symmetry c1
}
set optking { dynamic_level = 1 }
set optking {
	frozen_dihedral = ("
		2 1 7 13
	")
}

ee,wfn = optimize('b3lyp-d3', return_wfn=True)
oeprop( wfn, 'DIPOLE', 'QUADRUPOLE', 'MULLIKEN_CHARGES')
f=open( 'psi4out.xyz', 'w' )
f.write( "18  " )
f.write( str(ee) + "\n" )
f.write( MOL.save_string_xyz() )
f.close()
--------------------------------------------------------------------------

    Molecular point group: c1
  Charge       = 1
  Multiplicity = 1
  Basis Set: 6-31G*
    Blend: 6-31G*
   => B3LYP Composite Functional <=
  Basis Set: (6-31G* AUX)
    Blend: CC-PVDZ-JKFIT
  @DF-RKS Final Energy:  -381.46921515302404
    Total Energy =                       -381.4692151530240949
    Molecular point group: c1
  Basis Set: 6-31G*
    Blend: 6-31G*
  Basis Set: (6-31G* AUX)
    Blend: CC-PVDZ-JKFIT
   => B3LYP Composite Functional <=
  Basis Set: 6-31G*
    Blend: 6-31G*
   => B3LYP Composite Functional <=
  Basis Set: (6-31G* AUX)
    Blend: CC-PVDZ-JKFIT
  @DF-RKS Final Energy:  -381.46955498671718
    Total Energy =                       -381.4695549867172417
  Basis Set: 6-31G*
    Blend: 6-31G*
  Basis Set: (6-31G* AUX)
  @DF-RKS Final Energy:  -381.46966560336529
    Total Energy =                       -381.4696656033653426
  @DF-RKS Final Energy:  -381.46967409734884
    Total Energy =                       -381.4696740973489000
   => B3LYP Composite Functional <=
  Basis Set: (6-31G* AUX)
    Blend: CC-PVDZ-JKFIT
  @DF-RKS Final Energy:  -381.46967577677282
    Total Energy =                       -381.4696757767728172
  Basis Set: 6-31G*
    Blend: 6-31G*
  Basis Set: (6-31G* AUX)
    Blend: CC-PVDZ-JKFIT
   => B3LYP Composite Functional <=
  Charge       = 1
  Multiplicity = 1
  Basis Set: 6-31G*
    Blend: 6-31G*
   => B3LYP Composite Functional <=
  Basis Set: (6-31G* AUX)
    Blend: CC-PVDZ-JKFIT

    Orbital Energies (a.u.)
    -----------------------

    Doubly Occupied:

       1A    -14.570121     2A    -14.569981     3A    -10.498163
       4A    -10.371625     5A    -10.354344     6A    -10.353911
       7A    -10.340497     8A    -10.338736     9A    -10.338642
      10A     -1.185298    11A     -1.093999    12A     -1.012859
      13A     -0.925384    14A     -0.900334    15A     -0.845005
      16A     -0.786179    17A     -0.771479    18A     -0.745438
      19A     -0.731144    20A     -0.689134    21A     -0.668678
      22A     -0.622651    23A     -0.619695    24A     -0.583327
      25A     -0.577386    26A     -0.571313    27A     -0.517963
      28A     -0.503091    29A     -0.496399    30A     -0.474429
      31A     -0.410022    32A     -0.403887

  @DF-RKS Final Energy:  -381.46967591514169

   => Energetics <=

    Nuclear Repulsion Energy =            416.8776643738586358
    One-Electron Energy =               -1329.0047640555094404
    Two-Electron Energy =                 575.0749415188254261
    DFT Exchange-Correlation Energy =     -44.4055328723163285
    Empirical Dispersion Energy =          -0.0119848800000000
    PCM Polarization Energy =               0.0000000000000000
    EFP Energy =                            0.0000000000000000
    Total Energy =                       -381.4696759151417496
    Molecular point group: c1
  Basis Set: 6-31G*
    Blend: 6-31G*
  Basis Set: (6-31G* AUX)
    Blend: CC-PVDZ-JKFIT
   => B3LYP Composite Functional <=

  -Total Gradient:
     Atom            X                  Y                   Z
    ------   -----------------  -----------------  -----------------
       1        0.003112521822     0.001731808012    -0.000038458671
       2       -0.002851970788    -0.000613067048     0.000031893957
       3       -0.000012645437    -0.000006195150     0.000009220753
       4       -0.000008385126     0.000009555063    -0.000005529008
       5        0.000000659816    -0.000008029408    -0.000011440297
       6        0.000012673932     0.000008519825     0.000016259123
       7        0.002212023396    -0.003012139198    -0.000068090752
       8       -0.000004178852    -0.000000770957    -0.000000403476
       9        0.000004623983    -0.000000169267    -0.000000049659
      10        0.000004863145     0.000001067708     0.000000692442
      11       -0.000001259161     0.000001399014     0.000001671194
      12        0.000001088598    -0.000000215215    -0.000005381946
      13       -0.002455499917     0.001887397075     0.000044678984
      14       -0.000013709034     0.000008299221     0.000006183423
      15        0.000004149881    -0.000007638972     0.000000460297
      16        0.000000986534    -0.000005962679    -0.000001323461
      17       -0.000007373660    -0.000001154398     0.000000336484
      18       -0.000005198542     0.000002509146    -0.000001070360

  **** Optimization is complete! (in 6 steps) ****
    Final optimized geometry and variables:
    Molecular point group: c1

    Geometry (in Angstrom), charge = 1, multiplicity = 1:

    C            0.040496632263     0.000786112157    -0.190241516819
    C           -0.209397883601     1.197985712810     0.503381467779
    C           -0.241630969193     1.187515475804     1.895245518767
    C           -0.022360343211    -0.004561063836     2.591929296499
    C            0.219649010239    -1.196062634841     1.901014117376
    C            0.238612999711    -1.202756894138     0.509245421677
    C            0.016043360337    -0.003313628094    -1.659839249714
    H           -0.407906794405     2.117126682994    -0.040627281919
    H           -0.446882761711     2.106007360632     2.435530586492
    H           -0.043613062330    -0.006009447522     3.677375232302
    H            0.396290906464    -2.117409738232     2.446505956408
    H            0.447107954096    -2.122918264208    -0.029687465530
    N           -0.700524049534    -0.919530997417    -2.300837812457
    N            0.673881791567     0.936693942078    -2.329139040027
    H            0.612702341480     1.047622639084    -3.334924932464
    H            1.304797504169     1.552839426270    -1.832665996875
    H           -1.292913026840    -1.548084793713    -1.773507428144
    H           -0.692501389620    -1.024660128018    -3.309129922766

  Mulliken Charges: (a.u.)
   Center  Symbol    Alpha    Beta     Spin     Total
       1     C     2.96839  2.96839  0.00000  0.06323
       2     C     3.07728  3.07728  0.00000 -0.15455
       3     C     3.06224  3.06224  0.00000 -0.12448
       4     C     3.05197  3.05197  0.00000 -0.10395
       5     C     3.06297  3.06297  0.00000 -0.12595
       6     C     3.08030  3.08030  0.00000 -0.16059
       7     C     2.73023  2.73023  0.00000  0.53954
       8     H     0.41358  0.41358  0.00000  0.17285
       9     H     0.40586  0.40586  0.00000  0.18828
      10     H     0.40461  0.40461  0.00000  0.19078
      11     H     0.40588  0.40588  0.00000  0.18825
      12     H     0.41358  0.41358  0.00000  0.17285
      13     N     3.85687  3.85687  0.00000 -0.71374
      14     N     3.85822  3.85822  0.00000 -0.71644
      15     H     0.30557  0.30557  0.00000  0.38887
      16     H     0.29848  0.29848  0.00000  0.40305
      17     H     0.29844  0.29844  0.00000  0.40313
      18     H     0.30556  0.30556  0.00000  0.38887

   Total alpha = 32.00000, Total beta = 32.00000, Total charge =  1.00000

*** Psi4 exiting successfully. Buy a developer a beer!
