                               Psi4 1.1 release

  ==> Input File <==

--------------------------------------------------------------------------
set_num_threads(1)
set_memory(3145728000)

set { reference rks }
set { basis 6-31G* }

molecule MOL {
    1 1
    noreorient
    nocom
    symmetry c1
    C    0.000000   0.000000  -0.177864
    C    0.036678   1.219374   0.524165
    C    0.031764   1.213119   1.915444
    C   -0.000000  -0.000000   2.610107
    C   -0.031764  -1.213119   1.915444
    C   -0.036677  -1.219374   0.524165
    C    0.000000  -0.000000  -1.644734
    H    0.018170   2.164705  -0.010853
    H    0.042402   2.152895   2.457886
    H   -0.000000  -0.000000   3.695756
    H   -0.042402  -2.152895   2.457886
    H   -0.018170  -2.164705  -0.010853
    N   -1.152097   0.034654  -2.308461
    N    1.152098  -0.034654  -2.308461
    H    1.209665   0.056579  -3.315997
    H    2.013552  -0.224422  -1.813317
    H   -2.013552   0.224422  -1.813317
    H   -1.209665  -0.056579  -3.315997
}

set optking { frozen_dihedral = (" 2 1 7 13 ") }

set optking { dynamic_level = 1
 geom_maxiter = 250
 print_trajectory_xyz_file = True }

energy, wfn = optimize('B3LYP-D3', return_wfn=True)

import os
os.chdir(os.environ['HTMD_PSI4_WORKDIR'])

oeprop(wfn, 'DIPOLE', 'QUADRUPOLE', 'MULLIKEN_CHARGES')

with open('psi4out.xyz', 'w') as f:
    f.write('18 ' )
    f.write('%.12f\n' % energy)
    f.write(MOL.save_string_xyz())
--------------------------------------------------------------------------

    Molecular point group: c1
  Charge       = 1
  Multiplicity = 1
  Basis Set: 6-31G*
    Blend: 6-31G*
   => B3LYP Composite Functional <=
  Basis Set: (6-31G* AUX)
    Blend: CC-PVDZ-JKFIT
  @DF-RKS Final Energy:  -381.46194146026335
    Total Energy =                       -381.4619414602634038
    Molecular point group: c1
  Basis Set: 6-31G*
    Blend: 6-31G*
  Basis Set: (6-31G* AUX)
    Blend: CC-PVDZ-JKFIT
   => B3LYP Composite Functional <=
  Basis Set: 6-31G*
    Blend: 6-31G*
   => B3LYP Composite Functional <=
  Basis Set: (6-31G* AUX)
    Blend: CC-PVDZ-JKFIT
  @DF-RKS Final Energy:  -381.46364552995772
    Total Energy =                       -381.4636455299577733
  Basis Set: 6-31G*
    Blend: 6-31G*
  Basis Set: (6-31G* AUX)
  @DF-RKS Final Energy:  -381.46398221656159
    Total Energy =                       -381.4639822165615328
  @DF-RKS Final Energy:  -381.46400568015503
    Total Energy =                       -381.4640056801549690
   => B3LYP Composite Functional <=
  Basis Set: (6-31G* AUX)
    Blend: CC-PVDZ-JKFIT
  @DF-RKS Final Energy:  -381.46401022510292
    Total Energy =                       -381.4640102251029248
  Basis Set: 6-31G*
    Blend: 6-31G*
  Basis Set: (6-31G* AUX)
    Blend: CC-PVDZ-JKFIT
   => B3LYP Composite Functional <=
  Charge       = 1
  Multiplicity = 1
  Basis Set: 6-31G*
    Blend: 6-31G*
   => B3LYP Composite Functional <=
  Basis Set: (6-31G* AUX)
    Blend: CC-PVDZ-JKFIT

    Orbital Energies (a.u.)
    -----------------------

    Doubly Occupied:

       1A    -14.577051     2A    -14.577038     3A    -10.503717
       4A    -10.367583     5A    -10.348148     6A    -10.348138
       7A    -10.332921     8A    -10.332768     9A    -10.331803
      10A     -1.191335    11A     -1.100470    12A     -1.008185
      13A     -0.921473    14A     -0.894291    15A     -0.845773
      16A     -0.788444    17A     -0.764943    18A     -0.755911
      19A     -0.727768    20A     -0.692342    21A     -0.666561
      22A     -0.623962    23A     -0.615002    24A     -0.577231
      25A     -0.572443    26A     -0.566684    27A     -0.514989
      28A     -0.495674    29A     -0.490878    30A     -0.480801
      31A     -0.403740    32A     -0.397434

  @DF-RKS Final Energy:  -381.46401072149803

   => Energetics <=

    Nuclear Repulsion Energy =            416.1223289456429484
    One-Electron Energy =               -1327.5956835526048962
    Two-Electron Energy =                 574.4249765531934599
    DFT Exchange-Correlation Energy =     -44.4040063177296176
    Empirical Dispersion Energy =          -0.0116263500000000
    PCM Polarization Energy =               0.0000000000000000
    EFP Energy =                            0.0000000000000000
    Total Energy =                       -381.4640107214980844
    Molecular point group: c1
  Basis Set: 6-31G*
    Blend: 6-31G*
  Basis Set: (6-31G* AUX)
    Blend: CC-PVDZ-JKFIT
   => B3LYP Composite Functional <=

  -Total Gradient:
     Atom            X                  Y                   Z
    ------   -----------------  -----------------  -----------------
       1       -0.000000908763    -0.000045593907     0.000046377434
       2        0.000032512899     0.000008577769    -0.000020054009
       3       -0.000015602601     0.000004974657    -0.000000338837
       4       -0.000012215792    -0.000003761936    -0.000008284096
       5        0.000012583748     0.000001236901     0.000008006137
       6       -0.000025322245     0.000019947737    -0.000018967677
       7        0.000028716698    -0.000001160860    -0.000043187405
       8       -0.000011000844     0.000000296920     0.000002475516
       9        0.000002111455    -0.000003036330     0.000002266743
      10        0.000004896084    -0.000000297978     0.000002372141
      11       -0.000000162150     0.000001717563     0.000002183684
      12        0.000010995214    -0.000001095384     0.000002823607
      13       -0.000019341899     0.000027523295     0.000030141588
      14       -0.000020622732     0.000025456262     0.000010962591
      15        0.000001787602    -0.000009353784     0.000023185711
      16       -0.000007964498    -0.000008851510    -0.000016896205
      17        0.000022702130    -0.000009292344    -0.000023347888
      18       -0.000003053638    -0.000007276135     0.000005531960

  **** Optimization is complete! (in 6 steps) ****
    Final optimized geometry and variables:
    Molecular point group: c1

    Geometry (in Angstrom), charge = 1, multiplicity = 1:

    C            0.000240044041    -0.000167557963    -0.173093714147
    C            0.040968137122     1.220890961789     0.514338733143
    C            0.040325870771     1.212242255849     1.908673409373
    C           -0.000188909935     0.000105784729     2.602534351991
    C           -0.040417675655    -1.212140612790     1.908881951391
    C           -0.040641372281    -1.221051755395     0.514530232753
    C            0.000097501343     0.000001005439    -1.658536079417
    H            0.072182637504     2.160478341154    -0.030022842966
    H            0.071583579629     2.151963249962     2.450754735421
    H           -0.000276894699     0.000198423692     3.688137194985
    H           -0.071753441268    -2.151775817090     2.451109679982
    H           -0.071728746291    -2.160754695882    -0.029643857301
    N           -1.155694717157     0.038557841820    -2.301630222496
    N            1.155632878750    -0.038063626140    -2.302051942830
    H            1.235507638516    -0.040909349812    -3.313900484261
    H            2.015630927540    -0.067155294173    -1.768190838311
    H           -2.015490432366     0.066572170415    -1.767423553915
    H           -1.235975025562     0.041008674398    -3.313467753396

  Mulliken Charges: (a.u.)
   Center  Symbol    Alpha    Beta     Spin     Total
       1     C     2.99542  2.99542  0.00000  0.00917
       2     C     3.07008  3.07008  0.00000 -0.14016
       3     C     3.06289  3.06289  0.00000 -0.12579
       4     C     3.05379  3.05379  0.00000 -0.10758
       5     C     3.06290  3.06290  0.00000 -0.12580
       6     C     3.07010  3.07010  0.00000 -0.14020
       7     C     2.74885  2.74885  0.00000  0.50231
       8     H     0.41373  0.41373  0.00000  0.17255
       9     H     0.40754  0.40754  0.00000  0.18492
      10     H     0.40701  0.40701  0.00000  0.18598
      11     H     0.40754  0.40754  0.00000  0.18492
      12     H     0.41373  0.41373  0.00000  0.17254
      13     N     3.84326  3.84326  0.00000 -0.68653
      14     N     3.84327  3.84327  0.00000 -0.68654
      15     H     0.30491  0.30491  0.00000  0.39018
      16     H     0.29503  0.29503  0.00000  0.40993
      17     H     0.29504  0.29504  0.00000  0.40993
      18     H     0.30491  0.30491  0.00000  0.39017

   Total alpha = 32.00000, Total beta = 32.00000, Total charge =  1.00000

*** Psi4 exiting successfully. Buy a developer a beer!
