                               Psi4 1.1 release

  ==> Input File <==

--------------------------------------------------------------------------
set {
	reference rks
	basis 6-31G*
}

set_num_threads( 8 )
memory 2 gb

molecule MOL {
1 1

C	 -0.000000	 -0.000000	 -0.191639
C	 -0.958853	 0.754201	 0.510391
C	 -0.956743	 0.746533	 1.901670
C	 -0.000000	 0.000000	 2.596333
C	 0.956743	 -0.746533	 1.901670
C	 0.958853	 -0.754202	 0.510391
C	 -0.000000	 -0.000000	 -1.658508
H	 -1.730111	 1.301151	 -0.024627
H	 -1.706212	 1.313620	 2.444112
H	 -0.000000	 0.000000	 3.681982
H	 1.706212	 -1.313619	 2.444112
H	 1.730111	 -1.301151	 -0.024627
N	 -0.712589	 -0.905950	 -2.322235
N	 0.712590	 0.905950	 -2.322235
H	 0.673432	 1.006470	 -3.329771
H	 1.377190	 1.485970	 -1.827091
H	 -1.377189	 -1.485970	 -1.827091
H	 -0.673431	 -1.006470	 -3.329771

	symmetry c1
}
set optking { dynamic_level = 1 }
set optking {
	frozen_dihedral = ("
		2 1 7 13
	")
}

ee,wfn = optimize('b3lyp-d3', return_wfn=True)
oeprop( wfn, 'DIPOLE', 'QUADRUPOLE', 'MULLIKEN_CHARGES')
f=open( 'psi4out.xyz', 'w' )
f.write( "18  " )
f.write( str(ee) + "\n" )
f.write( MOL.save_string_xyz() )
f.close()
--------------------------------------------------------------------------

    Molecular point group: c1
  Charge       = 1
  Multiplicity = 1
  Basis Set: 6-31G*
    Blend: 6-31G*
   => B3LYP Composite Functional <=
  Basis Set: (6-31G* AUX)
    Blend: CC-PVDZ-JKFIT
  @DF-RKS Final Energy:  -381.46194142242865
    Total Energy =                       -381.4619414224286515
    Molecular point group: c1
  Basis Set: 6-31G*
    Blend: 6-31G*
  Basis Set: (6-31G* AUX)
    Blend: CC-PVDZ-JKFIT
   => B3LYP Composite Functional <=
  Basis Set: 6-31G*
    Blend: 6-31G*
   => B3LYP Composite Functional <=
  Basis Set: (6-31G* AUX)
    Blend: CC-PVDZ-JKFIT
  @DF-RKS Final Energy:  -381.46364552798872
    Total Energy =                       -381.4636455279887173
  Basis Set: 6-31G*
    Blend: 6-31G*
  Basis Set: (6-31G* AUX)
  @DF-RKS Final Energy:  -381.46398222588425
    Total Energy =                       -381.4639822258841946
  @DF-RKS Final Energy:  -381.46400568003287
    Total Energy =                       -381.4640056800328693
   => B3LYP Composite Functional <=
  Basis Set: (6-31G* AUX)
    Blend: CC-PVDZ-JKFIT
  @DF-RKS Final Energy:  -381.46401022474237
    Total Energy =                       -381.4640102247423670
  Basis Set: 6-31G*
    Blend: 6-31G*
  Basis Set: (6-31G* AUX)
    Blend: CC-PVDZ-JKFIT
   => B3LYP Composite Functional <=
  Charge       = 1
  Multiplicity = 1
  Basis Set: 6-31G*
    Blend: 6-31G*
   => B3LYP Composite Functional <=
  Basis Set: (6-31G* AUX)
    Blend: CC-PVDZ-JKFIT

    Orbital Energies (a.u.)
    -----------------------

    Doubly Occupied:

       1A    -14.577051     2A    -14.577038     3A    -10.503717
       4A    -10.367583     5A    -10.348148     6A    -10.348138
       7A    -10.332922     8A    -10.332768     9A    -10.331803
      10A     -1.191335    11A     -1.100470    12A     -1.008185
      13A     -0.921473    14A     -0.894291    15A     -0.845773
      16A     -0.788444    17A     -0.764943    18A     -0.755911
      19A     -0.727768    20A     -0.692342    21A     -0.666561
      22A     -0.623962    23A     -0.615002    24A     -0.577231
      25A     -0.572443    26A     -0.566683    27A     -0.514988
      28A     -0.495674    29A     -0.490878    30A     -0.480801
      31A     -0.403740    32A     -0.397434

  @DF-RKS Final Energy:  -381.46401072288802

   => Energetics <=

    Nuclear Repulsion Energy =            416.1222665179697060
    One-Electron Energy =               -1327.5955617179197361
    Two-Electron Energy =                 574.4249156412782895
    DFT Exchange-Correlation Energy =     -44.4040048142163286
    Empirical Dispersion Energy =          -0.0116263500000000
    PCM Polarization Energy =               0.0000000000000000
    EFP Energy =                            0.0000000000000000
    Total Energy =                       -381.4640107228880197
    Molecular point group: c1
  Basis Set: 6-31G*
    Blend: 6-31G*
  Basis Set: (6-31G* AUX)
    Blend: CC-PVDZ-JKFIT
   => B3LYP Composite Functional <=

  -Total Gradient:
     Atom            X                  Y                   Z
    ------   -----------------  -----------------  -----------------
       1        0.000036312045    -0.000027973063     0.000046257897
       2        0.000012316544     0.000031351124    -0.000020030648
       3       -0.000013332923    -0.000009553757    -0.000000266461
       4       -0.000004211151    -0.000012078847    -0.000008280123
       5        0.000006514592     0.000010828200     0.000007992042
       6       -0.000031005740    -0.000008566289    -0.000018904958
       7        0.000017888967     0.000022504310    -0.000043105739
       8       -0.000006895553    -0.000008582238     0.000002428246
       9        0.000003674193    -0.000000087287     0.000002279736
      10        0.000003142352     0.000003766254     0.000002469819
      11       -0.000001456605     0.000000869995     0.000002209004
      12        0.000007490868     0.000008130204     0.000002797507
      13       -0.000033685222     0.000000718509     0.000030120724
      14       -0.000032679422    -0.000001397417     0.000010936404
      15        0.000008599777    -0.000004102613     0.000023083189
      16        0.000002460241    -0.000011581560    -0.000016845232
      17        0.000020902946     0.000012652942    -0.000023302246
      18        0.000004021045    -0.000006802919     0.000005411597

  **** Optimization is complete! (in 6 steps) ****
    Final optimized geometry and variables:
    Molecular point group: c1

    Geometry (in Angstrom), charge = 1, multiplicity = 1:

    C            0.000294815407     0.000045640108    -0.183804777398
    C           -0.957505831056     0.758505760578     0.503627766506
    C           -0.950932217826     0.752849064435     1.897962689087
    C           -0.000180453739    -0.000136760080     2.591823917329
    C            0.950829931853    -0.752957890948     1.898171583631
    C            0.957863922095    -0.758433992978     0.503819636219
    C            0.000074323707     0.000031263992    -1.669246913921
    H           -1.694594348409     1.342029363905    -0.040733867983
    H           -1.688102458039     1.336486824524     2.440043965203
    H           -0.000307507357    -0.000152425100     3.677426986368
    H            1.687884544846    -1.336607449929     2.440399651114
    H            1.695121018089    -1.341924185663    -0.040354255658
    N           -0.717850233618    -0.906570727652    -2.312341088144
    N            0.717450283226     0.906719225760    -2.312762880807
    H            0.767210319461     0.969265422948    -3.324611554312
    H            1.251965058097     1.581061274332    -1.778901708913
    H           -1.251377991428    -1.581390543711    -1.778134283708
    H           -0.767534055952    -0.969677617018    -3.324178769057

  Mulliken Charges: (a.u.)
   Center  Symbol    Alpha    Beta     Spin     Total
       1     C     2.99542  2.99542  0.00000  0.00917
       2     C     3.07008  3.07008  0.00000 -0.14016
       3     C     3.06289  3.06289  0.00000 -0.12579
       4     C     3.05379  3.05379  0.00000 -0.10758
       5     C     3.06290  3.06290  0.00000 -0.12580
       6     C     3.07010  3.07010  0.00000 -0.14020
       7     C     2.74885  2.74885  0.00000  0.50231
       8     H     0.41373  0.41373  0.00000  0.17255
       9     H     0.40754  0.40754  0.00000  0.18492
      10     H     0.40701  0.40701  0.00000  0.18598
      11     H     0.40754  0.40754  0.00000  0.18492
      12     H     0.41373  0.41373  0.00000  0.17254
      13     N     3.84326  3.84326  0.00000 -0.68653
      14     N     3.84327  3.84327  0.00000 -0.68654
      15     H     0.30491  0.30491  0.00000  0.39018
      16     H     0.29503  0.29503  0.00000  0.40993
      17     H     0.29504  0.29504  0.00000  0.40993
      18     H     0.30491  0.30491  0.00000  0.39017

   Total alpha = 32.00000, Total beta = 32.00000, Total charge =  1.00000

*** Psi4 exiting successfully. Buy a developer a beer!
