                               Psi4 1.1 release

  ==> Input File <==

--------------------------------------------------------------------------
set_num_threads( 8 )
memory 2.000000 gb

set { reference rks }
set { basis cc-pVDZ }

molecule MOL {
    0 1
    noreorient
    nocom
    symmetry c1
    O    1.141000   0.017000   0.083000
    C    2.558000   0.086000  -0.005000
    C    3.192000  -0.789000   1.067000
    O    2.613302  -2.088180   1.042315
    H    0.789000   0.590000  -0.620000
    H    2.874000   1.128000   0.115000
    H    2.871000  -0.243000  -1.001000
    H    3.042660  -0.348442   2.057729
    H    4.271671  -0.875380   0.900487
    H    3.052233  -2.601560   1.742791
}

set optking { frozen_dihedral = (" 1 2 3 4, 2 3 4 10 ") }

energy, wfn = energy('B3LYP-D3', return_wfn=True)

import os
os.chdir(os.environ['HTMD_PSI4_WORKDIR'])

oeprop(wfn, 'DIPOLE', 'QUADRUPOLE', 'MULLIKEN_CHARGES')

with open('psi4out.xyz', 'w') as f:
    f.write('10 ' )
    f.write('%.12f\n' % energy)
    f.write(MOL.save_string_xyz())
--------------------------------------------------------------------------

    Molecular point group: c1

    Geometry (in Angstrom), charge = 0, multiplicity = 1:

       Center              X                  Y                   Z               Mass
    ------------   -----------------  -----------------  -----------------  -----------------
           O          1.141000000000     0.017000000000     0.083000000000    15.994914619560
           C          2.558000000000     0.086000000000    -0.005000000000    12.000000000000
           C          3.192000000000    -0.789000000000     1.067000000000    12.000000000000
           O          2.613302000000    -2.088180000000     1.042315000000    15.994914619560
           H          0.789000000000     0.590000000000    -0.620000000000     1.007825032070
           H          2.874000000000     1.128000000000     0.115000000000     1.007825032070
           H          2.871000000000    -0.243000000000    -1.001000000000     1.007825032070
           H          3.042660000000    -0.348442000000     2.057729000000     1.007825032070
           H          4.271671000000    -0.875380000000     0.900487000000     1.007825032070
           H          3.052233000000    -2.601560000000     1.742791000000     1.007825032070

  Charge       = 0
  Multiplicity = 1
  Basis Set: CC-PVDZ
    Blend: CC-PVDZ
   => B3LYP Composite Functional <=
  Basis Set: (CC-PVDZ AUX)
    Blend: CC-PVDZ-JKFIT

    Orbital Energies (a.u.)
    -----------------------

    Doubly Occupied:

       1A    -19.124208     2A    -19.124152     3A    -10.227315
       4A    -10.227120     5A     -1.016441     6A     -0.997677
       7A     -0.733934     8A     -0.601437     9A     -0.522111
      10A     -0.496236    11A     -0.443727    12A     -0.415003
      13A     -0.401352    14A     -0.337970    15A     -0.319195
      16A     -0.259047    17A     -0.257535

  @DF-RKS Final Energy:  -230.25405510189808

   => Energetics <=

    Nuclear Repulsion Energy =            132.1836564385398276
    One-Electron Energy =                -576.2358795225495669
    Two-Electron Energy =                 238.3386884644629902
    DFT Exchange-Correlation Energy =     -24.5362499023513436
    Empirical Dispersion Energy =          -0.0042705800000000
    PCM Polarization Energy =               0.0000000000000000
    EFP Energy =                            0.0000000000000000
    Total Energy =                       -230.2540551018980466

  Mulliken Charges: (a.u.)
   Center  Symbol    Alpha    Beta     Spin     Total
       1     O     4.13327  4.13327  0.00000 -0.26653
       2     C     2.93333  2.93333  0.00000  0.13333
       3     C     2.93351  2.93351  0.00000  0.13299
       4     O     4.13349  4.13349  0.00000 -0.26698
       5     H     0.43064  0.43064  0.00000  0.13872
       6     H     0.50331  0.50331  0.00000 -0.00661
       7     H     0.49940  0.49940  0.00000  0.00120
       8     H     0.49928  0.49928  0.00000  0.00143
       9     H     0.50320  0.50320  0.00000 -0.00639
      10     H     0.43058  0.43058  0.00000  0.13884

   Total alpha = 17.00000, Total beta = 17.00000, Total charge =  0.00000

*** Psi4 exiting successfully. Buy a developer a beer!
