                               Psi4 1.1 release

  ==> Input File <==

--------------------------------------------------------------------------
set_num_threads(1)
set_memory(4203741184)

set { reference rks }
set { basis cc-pVDZ }

molecule MOL {
    0 1
    noreorient
    nocom
    symmetry c1
    O    1.141000   0.017000   0.083000
    C    2.558000   0.086000  -0.005000
    C    3.192000  -0.789000   1.067000
    O    4.610000  -0.719000   0.979000
    H    0.789000   0.590000  -0.620000
    H    2.874000   1.128000   0.115000
    H    2.871000  -0.243000  -1.001000
    H    2.876000  -1.830000   0.947000
    H    2.879000  -0.459000   2.064000
    H    4.956242  -1.504673   1.436953
}

set optking { frozen_dihedral = (" 2 3 4 10 ") }

energy, wfn = energy('B3LYP-D3', return_wfn=True)

import os
os.chdir(os.environ['HTMD_PSI4_WORKDIR'])

oeprop(wfn, 'DIPOLE', 'QUADRUPOLE', 'MULLIKEN_CHARGES')

with open('psi4out.xyz', 'w') as f:
    f.write('10 ' )
    f.write('%.12f\n' % energy)
    f.write(MOL.save_string_xyz())
--------------------------------------------------------------------------

    Molecular point group: c1

    Geometry (in Angstrom), charge = 0, multiplicity = 1:

       Center              X                  Y                   Z               Mass
    ------------   -----------------  -----------------  -----------------  -----------------
           O          1.141000000000     0.017000000000     0.083000000000    15.994914619560
           C          2.558000000000     0.086000000000    -0.005000000000    12.000000000000
           C          3.192000000000    -0.789000000000     1.067000000000    12.000000000000
           O          4.610000000000    -0.719000000000     0.979000000000    15.994914619560
           H          0.789000000000     0.590000000000    -0.620000000000     1.007825032070
           H          2.874000000000     1.128000000000     0.115000000000     1.007825032070
           H          2.871000000000    -0.243000000000    -1.001000000000     1.007825032070
           H          2.876000000000    -1.830000000000     0.947000000000     1.007825032070
           H          2.879000000000    -0.459000000000     2.064000000000     1.007825032070
           H          4.956242000000    -1.504673000000     1.436953000000     1.007825032070

  Charge       = 0
  Multiplicity = 1
  Basis Set: CC-PVDZ
    Blend: CC-PVDZ
   => B3LYP Composite Functional <=
  Basis Set: (CC-PVDZ AUX)
    Blend: CC-PVDZ-JKFIT

    Orbital Energies (a.u.)
    -----------------------

    Doubly Occupied:

       1A    -19.131866     2A    -19.131411     3A    -10.226368
       4A    -10.225753     5A     -1.018866     6A     -1.008589
       7A     -0.732110     8A     -0.603928     9A     -0.526029
      10A     -0.483192    11A     -0.470111    12A     -0.413299
      13A     -0.395166    14A     -0.348795    15A     -0.319669
      16A     -0.264527    17A     -0.263489

  @DF-RKS Final Energy:  -230.25712168704186

   => Energetics <=

    Nuclear Repulsion Energy =            129.4555032746235383
    One-Electron Energy =                -570.6661116335754969
    Two-Electron Energy =                 235.4967688594706487
    DFT Exchange-Correlation Energy =     -24.5388712275605485
    Empirical Dispersion Energy =          -0.0044109600000000
    PCM Polarization Energy =               0.0000000000000000
    EFP Energy =                            0.0000000000000000
    Total Energy =                       -230.2571216870418596

  Mulliken Charges: (a.u.)
   Center  Symbol    Alpha    Beta     Spin     Total
       1     O     4.14054  4.14054  0.00000 -0.28108
       2     C     2.93605  2.93605  0.00000  0.12790
       3     C     2.93668  2.93668  0.00000  0.12664
       4     O     4.14057  4.14057  0.00000 -0.28114
       5     H     0.42741  0.42741  0.00000  0.14518
       6     H     0.49742  0.49742  0.00000  0.00517
       7     H     0.49937  0.49937  0.00000  0.00126
       8     H     0.49809  0.49809  0.00000  0.00382
       9     H     0.49679  0.49679  0.00000  0.00641
      10     H     0.42708  0.42708  0.00000  0.14584

   Total alpha = 17.00000, Total beta = 17.00000, Total charge =  0.00000

*** Psi4 exiting successfully. Buy a developer a beer!
