                               Psi4 1.1 release

  ==> Input File <==

--------------------------------------------------------------------------
set_num_threads( 8 )
memory 2.000000 gb

set { reference rks }
set { basis cc-pVDZ }

molecule MOL {
    0 1
    noreorient
    nocom
    symmetry c1
    O    1.141000   0.017000   0.083000
    C    2.558000   0.086000  -0.005000
    C    3.192000  -0.789000   1.067000
    O    2.789795  -0.348133   2.358215
    H    0.789000   0.590000  -0.620000
    H    2.874000   1.128000   0.115000
    H    2.871000  -0.243000  -1.001000
    H    4.283538  -0.747996   0.997722
    H    2.889205  -1.833963   0.935677
    H    3.221250  -0.938201   3.000516
}

set optking { frozen_dihedral = (" 1 2 3 4, 2 3 4 10 ") }

energy, wfn = energy('B3LYP-D3', return_wfn=True)

import os
os.chdir(os.environ['HTMD_PSI4_WORKDIR'])

oeprop(wfn, 'DIPOLE', 'QUADRUPOLE', 'MULLIKEN_CHARGES')

with open('psi4out.xyz', 'w') as f:
    f.write('10 ' )
    f.write('%.12f\n' % energy)
    f.write(MOL.save_string_xyz())
--------------------------------------------------------------------------

    Molecular point group: c1

    Geometry (in Angstrom), charge = 0, multiplicity = 1:

       Center              X                  Y                   Z               Mass
    ------------   -----------------  -----------------  -----------------  -----------------
           O          1.141000000000     0.017000000000     0.083000000000    15.994914619560
           C          2.558000000000     0.086000000000    -0.005000000000    12.000000000000
           C          3.192000000000    -0.789000000000     1.067000000000    12.000000000000
           O          2.789795000000    -0.348133000000     2.358215000000    15.994914619560
           H          0.789000000000     0.590000000000    -0.620000000000     1.007825032070
           H          2.874000000000     1.128000000000     0.115000000000     1.007825032070
           H          2.871000000000    -0.243000000000    -1.001000000000     1.007825032070
           H          4.283538000000    -0.747996000000     0.997722000000     1.007825032070
           H          2.889205000000    -1.833963000000     0.935677000000     1.007825032070
           H          3.221250000000    -0.938201000000     3.000516000000     1.007825032070

  Charge       = 0
  Multiplicity = 1
  Basis Set: CC-PVDZ
    Blend: CC-PVDZ
   => B3LYP Composite Functional <=
  Basis Set: (CC-PVDZ AUX)
    Blend: CC-PVDZ-JKFIT

    Orbital Energies (a.u.)
    -----------------------

    Doubly Occupied:

       1A    -19.124736     2A    -19.124705     3A    -10.227407
       4A    -10.227216     5A     -1.016442     6A     -0.998872
       7A     -0.733847     8A     -0.602007     9A     -0.520242
      10A     -0.500836    11A     -0.438882    12A     -0.416237
      13A     -0.403663    14A     -0.340253    15A     -0.318367
      16A     -0.261211    17A     -0.257267

  @DF-RKS Final Energy:  -230.25570783790448

   => Energetics <=

    Nuclear Repulsion Energy =            131.8293714313034570
    One-Electron Energy =                -575.5151305911308555
    Two-Electron Energy =                 237.9704750097448596
    DFT Exchange-Correlation Energy =     -24.5360894378219569
    Empirical Dispersion Energy =          -0.0043342500000000
    PCM Polarization Energy =               0.0000000000000000
    EFP Energy =                            0.0000000000000000
    Total Energy =                       -230.2557078379044810

  Mulliken Charges: (a.u.)
   Center  Symbol    Alpha    Beta     Spin     Total
       1     O     4.13461  4.13461  0.00000 -0.26922
       2     C     2.93252  2.93252  0.00000  0.13496
       3     C     2.93266  2.93266  0.00000  0.13469
       4     O     4.13486  4.13486  0.00000 -0.26972
       5     H     0.43067  0.43067  0.00000  0.13865
       6     H     0.49846  0.49846  0.00000  0.00308
       7     H     0.50368  0.50368  0.00000 -0.00735
       8     H     0.50356  0.50356  0.00000 -0.00711
       9     H     0.49836  0.49836  0.00000  0.00328
      10     H     0.43062  0.43062  0.00000  0.13876

   Total alpha = 17.00000, Total beta = 17.00000, Total charge =  0.00000

*** Psi4 exiting successfully. Buy a developer a beer!
