                               Psi4 1.1 release

  ==> Input File <==

--------------------------------------------------------------------------
set_num_threads(1)
set_memory(4203741184)

set { reference rks }
set { basis cc-pVDZ }

molecule MOL {
    0 1
    noreorient
    nocom
    symmetry c1
    O    1.050400   0.042900  -0.048100
    C    2.474100   0.047400  -0.029000
    C    3.002600  -1.068900  -0.932000
    N    4.018517  -0.587218  -1.866556
    H    0.760400   0.728400   0.578000
    H    2.809900  -0.097900   1.003200
    H    2.817400   1.026800  -0.378600
    H    2.172961  -1.520671  -1.488184
    H    3.426035  -1.866669  -0.311256
    H    3.591568   0.067307  -2.521379
    H    4.344664  -1.372411  -2.429895
}

set optking { frozen_dihedral = (" 1 2 3 4 ") }

energy, wfn = energy('B3LYP-D3', return_wfn=True)

import os
os.chdir(os.environ['HTMD_PSI4_WORKDIR'])

oeprop(wfn, 'DIPOLE', 'QUADRUPOLE', 'MULLIKEN_CHARGES')

with open('psi4out.xyz', 'w') as f:
    f.write('11 ' )
    f.write('%.12f\n' % energy)
    f.write(MOL.save_string_xyz())
--------------------------------------------------------------------------

    Molecular point group: c1

    Geometry (in Angstrom), charge = 0, multiplicity = 1:

       Center              X                  Y                   Z               Mass
    ------------   -----------------  -----------------  -----------------  -----------------
           O          1.050400000000     0.042900000000    -0.048100000000    15.994914619560
           C          2.474100000000     0.047400000000    -0.029000000000    12.000000000000
           C          3.002600000000    -1.068900000000    -0.932000000000    12.000000000000
           N          4.018517000000    -0.587218000000    -1.866556000000    14.003074004780
           H          0.760400000000     0.728400000000     0.578000000000     1.007825032070
           H          2.809900000000    -0.097900000000     1.003200000000     1.007825032070
           H          2.817400000000     1.026800000000    -0.378600000000     1.007825032070
           H          2.172961000000    -1.520671000000    -1.488184000000     1.007825032070
           H          3.426035000000    -1.866669000000    -0.311256000000     1.007825032070
           H          3.591568000000     0.067307000000    -2.521379000000     1.007825032070
           H          4.344664000000    -1.372411000000    -2.429895000000     1.007825032070

  Charge       = 0
  Multiplicity = 1
  Basis Set: CC-PVDZ
    Blend: CC-PVDZ
   => B3LYP Composite Functional <=
  Basis Set: (CC-PVDZ AUX)
    Blend: CC-PVDZ-JKFIT

    Orbital Energies (a.u.)
    -----------------------

    Doubly Occupied:

       1A    -19.125842     2A    -14.302288     3A    -10.222609
       4A    -10.200596     5A     -1.008770     6A     -0.874788
       7A     -0.712365     8A     -0.596116     9A     -0.508909
      10A     -0.487019    11A     -0.443262    12A     -0.417438
      13A     -0.389007    14A     -0.362973    15A     -0.324042
      16A     -0.259566    17A     -0.228093

  @DF-RKS Final Energy:  -210.38687045681348

   => Energetics <=

    Nuclear Repulsion Energy =            130.9317264727583847
    One-Electron Energy =                -544.8252645710849720
    Two-Electron Energy =                 227.0018683984666268
    DFT Exchange-Correlation Energy =     -23.4904714669535153
    Empirical Dispersion Energy =          -0.0047292900000000
    PCM Polarization Energy =               0.0000000000000000
    EFP Energy =                            0.0000000000000000
    Total Energy =                       -210.3868704568134831

  Mulliken Charges: (a.u.)
   Center  Symbol    Alpha    Beta     Spin     Total
       1     O     4.14132  4.14132  0.00000 -0.28264
       2     C     2.92806  2.92806  0.00000  0.14388
       3     C     2.98162  2.98162  0.00000  0.03676
       4     N     3.59536  3.59536  0.00000 -0.19072
       5     H     0.43138  0.43138  0.00000  0.13724
       6     H     0.50029  0.50029  0.00000 -0.00058
       7     H     0.50193  0.50193  0.00000 -0.00386
       8     H     0.49719  0.49719  0.00000  0.00562
       9     H     0.49315  0.49315  0.00000  0.01370
      10     H     0.46425  0.46425  0.00000  0.07150
      11     H     0.46545  0.46545  0.00000  0.06910

   Total alpha = 17.00000, Total beta = 17.00000, Total charge = -0.00000

*** Psi4 exiting successfully. Buy a developer a beer!
