                               Psi4 1.1 release

  ==> Input File <==

--------------------------------------------------------------------------
set {
	reference rks
	basis cc-pvdz
}

set_num_threads( 8 )
memory 2 gb

molecule MOL {
0 1

O	 1.014300	 -0.002300	 0.060500
O	 2.462400	 -0.107500	 -0.002400
H	 0.955565	 0.157588	 1.021742
H	 2.655500	 0.713700	 0.488700

	symmetry c1
}
set optking { dynamic_level = 1 }
set optking {
	frozen_dihedral = ("
		3 1 2 4
	")
}

ee,wfn = energy('b3lyp-d3', return_wfn=True)
oeprop( wfn, 'DIPOLE', 'QUADRUPOLE', 'MULLIKEN_CHARGES')
f=open( 'psi4out.xyz', 'w' )
f.write( "4  " )
f.write( str(ee) + "\n" )
f.write( MOL.save_string_xyz() )
f.close()
--------------------------------------------------------------------------

    Molecular point group: c1

    Geometry (in Angstrom), charge = 0, multiplicity = 1:

       Center              X                  Y                   Z               Mass
    ------------   -----------------  -----------------  -----------------  -----------------
           O         -0.728032193847     0.023523361019    -0.011593258108    15.994914619560
           O          0.720067806153    -0.081676638981    -0.074493258108    15.994914619560
           H         -0.786767193847     0.183411361019     0.949648741892     1.007825032070
           H          0.913167806153     0.739523361019     0.416606741892     1.007825032070

  Charge       = 0
  Multiplicity = 1
  Basis Set: CC-PVDZ
    Blend: CC-PVDZ
   => B3LYP Composite Functional <=
  Basis Set: (CC-PVDZ AUX)
    Blend: CC-PVDZ-JKFIT

    Orbital Energies (a.u.)
    -----------------------

    Doubly Occupied:

       1A    -19.191636     2A    -19.191600     3A     -1.119540
       4A     -0.887339     5A     -0.549161     6A     -0.441105
       7A     -0.426181     8A     -0.332682     9A     -0.261831

  @DF-RKS Final Energy:  -151.54151252850778

   => Energetics <=

    Nuclear Repulsion Energy =             36.8599329531168607
    One-Electron Energy =                -281.6167751299789188
    Two-Electron Energy =                 107.6774619189766753
    DFT Exchange-Correlation Energy =     -14.4619344706224133
    Empirical Dispersion Energy =          -0.0001978000000000
    PCM Polarization Energy =               0.0000000000000000
    EFP Energy =                            0.0000000000000000
    Total Energy =                       -151.5415125285077806

  Mulliken Charges: (a.u.)
   Center  Symbol    Alpha    Beta     Spin     Total
       1     O     4.08225  4.08225  0.00000 -0.16451
       2     O     4.08223  4.08223  0.00000 -0.16447
       3     H     0.41775  0.41775  0.00000  0.16450
       4     H     0.41777  0.41777  0.00000  0.16447

   Total alpha =  9.00000, Total beta =  9.00000, Total charge = -0.00000

*** Psi4 exiting successfully. Buy a developer a beer!
