                               Psi4 1.1 release

  ==> Input File <==

--------------------------------------------------------------------------
set_num_threads(1)
set_memory(4203741184)

set { reference rks }
set { basis cc-pVDZ }

molecule MOL {
    0 1
    noreorient
    nocom
    symmetry c1
    O    1.050400   0.042900  -0.048100
    C    2.474100   0.047400  -0.029000
    C    3.002600  -1.068900  -0.932000
    N    4.462700  -1.072400  -1.006800
    H    0.760400   0.728400   0.578000
    H    2.809900  -0.097900   1.003200
    H    2.817400   1.026800  -0.378600
    H    2.581000  -0.963300  -1.938400
    H    2.653800  -2.036400  -0.553400
    H    4.845867  -1.372382  -0.110878
    H    4.786540  -0.114741  -1.141961
}

set optking { frozen_dihedral = (" 2 3 4 10 ") }

energy, wfn = energy('B3LYP-D3', return_wfn=True)

import os
os.chdir(os.environ['HTMD_PSI4_WORKDIR'])

oeprop(wfn, 'DIPOLE', 'QUADRUPOLE', 'MULLIKEN_CHARGES')

with open('psi4out.xyz', 'w') as f:
    f.write('11 ' )
    f.write('%.12f\n' % energy)
    f.write(MOL.save_string_xyz())
--------------------------------------------------------------------------

    Molecular point group: c1

    Geometry (in Angstrom), charge = 0, multiplicity = 1:

       Center              X                  Y                   Z               Mass
    ------------   -----------------  -----------------  -----------------  -----------------
           O          1.050400000000     0.042900000000    -0.048100000000    15.994914619560
           C          2.474100000000     0.047400000000    -0.029000000000    12.000000000000
           C          3.002600000000    -1.068900000000    -0.932000000000    12.000000000000
           N          4.462700000000    -1.072400000000    -1.006800000000    14.003074004780
           H          0.760400000000     0.728400000000     0.578000000000     1.007825032070
           H          2.809900000000    -0.097900000000     1.003200000000     1.007825032070
           H          2.817400000000     1.026800000000    -0.378600000000     1.007825032070
           H          2.581000000000    -0.963300000000    -1.938400000000     1.007825032070
           H          2.653800000000    -2.036400000000    -0.553400000000     1.007825032070
           H          4.845867000000    -1.372382000000    -0.110878000000     1.007825032070
           H          4.786540000000    -0.114741000000    -1.141961000000     1.007825032070

  Charge       = 0
  Multiplicity = 1
  Basis Set: CC-PVDZ
    Blend: CC-PVDZ
   => B3LYP Composite Functional <=
  Basis Set: (CC-PVDZ AUX)
    Blend: CC-PVDZ-JKFIT

    Orbital Energies (a.u.)
    -----------------------

    Doubly Occupied:

       1A    -19.128569     2A    -14.308075     3A    -10.224926
       4A    -10.202824     5A     -1.011275     6A     -0.880031
       7A     -0.710794     8A     -0.605348     9A     -0.504658
      10A     -0.499940    11A     -0.439761    12A     -0.419466
      13A     -0.402315    14A     -0.351515    15A     -0.331862
      16A     -0.263678    17A     -0.236397

  @DF-RKS Final Energy:  -210.39309608074407

   => Energetics <=

    Nuclear Repulsion Energy =            130.8812390872348033
    One-Electron Energy =                -544.6237752895460744
    Two-Electron Energy =                 226.8404613380500336
    DFT Exchange-Correlation Energy =     -23.4858690264828489
    Empirical Dispersion Energy =          -0.0051521900000000
    PCM Polarization Energy =               0.0000000000000000
    EFP Energy =                            0.0000000000000000
    Total Energy =                       -210.3930960807440727

  Mulliken Charges: (a.u.)
   Center  Symbol    Alpha    Beta     Spin     Total
       1     O     4.13866  4.13866  0.00000 -0.27732
       2     C     2.94232  2.94232  0.00000  0.11536
       3     C     2.97762  2.97762  0.00000  0.04475
       4     N     3.59032  3.59032  0.00000 -0.18065
       5     H     0.43094  0.43094  0.00000  0.13812
       6     H     0.50622  0.50622  0.00000 -0.01245
       7     H     0.50448  0.50448  0.00000 -0.00896
       8     H     0.48848  0.48848  0.00000  0.02304
       9     H     0.48957  0.48957  0.00000  0.02087
      10     H     0.46505  0.46505  0.00000  0.06991
      11     H     0.46634  0.46634  0.00000  0.06733

   Total alpha = 17.00000, Total beta = 17.00000, Total charge = -0.00000

*** Psi4 exiting successfully. Buy a developer a beer!
