                               Psi4 1.1 release

  ==> Input File <==

--------------------------------------------------------------------------
set_num_threads(1)
set_memory(4203741184)

set { reference rks }
set { basis cc-pVDZ }

molecule MOL {
    0 1
    noreorient
    nocom
    symmetry c1
    O    1.141000   0.017000   0.083000
    C    2.558000   0.086000  -0.005000
    C    3.192000  -0.789000   1.067000
    O    2.342668  -1.890881   1.363415
    H    0.789000   0.590000  -0.620000
    H    2.874000   1.128000   0.115000
    H    2.871000  -0.243000  -1.001000
    H    3.362186  -0.211149   1.980818
    H    4.162611  -1.167213   0.726784
    H    2.793587  -2.412913   2.049738
}

set optking { frozen_dihedral = (" 1 2 3 4 ") }

energy, wfn = energy('B3LYP-D3', return_wfn=True)

import os
os.chdir(os.environ['HTMD_PSI4_WORKDIR'])

oeprop(wfn, 'DIPOLE', 'QUADRUPOLE', 'MULLIKEN_CHARGES')

with open('psi4out.xyz', 'w') as f:
    f.write('10 ' )
    f.write('%.12f\n' % energy)
    f.write(MOL.save_string_xyz())
--------------------------------------------------------------------------

    Molecular point group: c1

    Geometry (in Angstrom), charge = 0, multiplicity = 1:

       Center              X                  Y                   Z               Mass
    ------------   -----------------  -----------------  -----------------  -----------------
           O          1.141000000000     0.017000000000     0.083000000000    15.994914619560
           C          2.558000000000     0.086000000000    -0.005000000000    12.000000000000
           C          3.192000000000    -0.789000000000     1.067000000000    12.000000000000
           O          2.342668000000    -1.890881000000     1.363415000000    15.994914619560
           H          0.789000000000     0.590000000000    -0.620000000000     1.007825032070
           H          2.874000000000     1.128000000000     0.115000000000     1.007825032070
           H          2.871000000000    -0.243000000000    -1.001000000000     1.007825032070
           H          3.362186000000    -0.211149000000     1.980818000000     1.007825032070
           H          4.162611000000    -1.167213000000     0.726784000000     1.007825032070
           H          2.793587000000    -2.412913000000     2.049738000000     1.007825032070

  Charge       = 0
  Multiplicity = 1
  Basis Set: CC-PVDZ
    Blend: CC-PVDZ
   => B3LYP Composite Functional <=
  Basis Set: (CC-PVDZ AUX)
    Blend: CC-PVDZ-JKFIT

    Orbital Energies (a.u.)
    -----------------------

    Doubly Occupied:

       1A    -19.123019     2A    -19.122956     3A    -10.226542
       4A    -10.226351     5A     -1.016438     6A     -0.995320
       7A     -0.734000     8A     -0.600119     9A     -0.525328
      10A     -0.486442    11A     -0.452605    12A     -0.413820
      13A     -0.396546    14A     -0.331801    15A     -0.321735
      16A     -0.263667    17A     -0.249051

  @DF-RKS Final Energy:  -230.24887361610624

   => Energetics <=

    Nuclear Repulsion Energy =            132.8335699968583015
    One-Electron Energy =                -577.5616739796978436
    Two-Electron Energy =                 239.0217218308791871
    DFT Exchange-Correlation Energy =     -24.5383909141458254
    Empirical Dispersion Energy =          -0.0041005500000000
    PCM Polarization Energy =               0.0000000000000000
    EFP Energy =                            0.0000000000000000
    Total Energy =                       -230.2488736161062093

  Mulliken Charges: (a.u.)
   Center  Symbol    Alpha    Beta     Spin     Total
       1     O     4.13050  4.13050  0.00000 -0.26101
       2     C     2.93471  2.93471  0.00000  0.13059
       3     C     2.93487  2.93487  0.00000  0.13026
       4     O     4.13073  4.13073  0.00000 -0.26146
       5     H     0.43113  0.43113  0.00000  0.13774
       6     H     0.50275  0.50275  0.00000 -0.00549
       7     H     0.50087  0.50087  0.00000 -0.00173
       8     H     0.50074  0.50074  0.00000 -0.00148
       9     H     0.50263  0.50263  0.00000 -0.00526
      10     H     0.43107  0.43107  0.00000  0.13785

   Total alpha = 17.00000, Total beta = 17.00000, Total charge = -0.00000

*** Psi4 exiting successfully. Buy a developer a beer!
