                               Psi4 1.1 release

  ==> Input File <==

--------------------------------------------------------------------------
set {
	reference rks
	basis 6-31G*
}

set_num_threads( 8 )
memory 2 gb

molecule MOL {
1 1

C	 -0.629753	 0.791908	 -0.596436
C	 -0.269267	 2.140829	 -0.418876
C	 -0.873450	 2.888147	 0.587205
C	 -1.826678	 2.297031	 1.422168
C	 -2.183444	 0.955869	 1.251203
C	 -1.593026	 0.200988	 0.242600
C	 -0.000000	 -0.000000	 -1.658508
H	 0.438910	 2.615781	 -1.092035
H	 -0.609228	 3.932962	 0.714022
H	 -2.292766	 2.883133	 2.208222
H	 -2.913425	 0.496743	 1.909887
H	 -1.841818	 -0.851637	 0.141010
N	 -0.712589	 -0.905950	 -2.322235
N	 1.282489	 0.189307	 -1.955911
H	 1.738474	 -0.264022	 -2.739070
H	 1.862357	 0.754630	 -1.349737
H	 -1.377189	 -1.485970	 -1.827091
H	 -0.673431	 -1.006470	 -3.329771

	symmetry c1
}
set optking { dynamic_level = 1 }
set optking {
	frozen_dihedral = ("
		1 7 13 17
	")
}

ee,wfn = optimize('b3lyp-d3', return_wfn=True)
oeprop( wfn, 'DIPOLE', 'QUADRUPOLE', 'MULLIKEN_CHARGES')
f=open( 'psi4out.xyz', 'w' )
f.write( "18  " )
f.write( str(ee) + "\n" )
f.write( MOL.save_string_xyz() )
f.close()
--------------------------------------------------------------------------

    Molecular point group: c1
  Charge       = 1
  Multiplicity = 1
  Basis Set: 6-31G*
    Blend: 6-31G*
   => B3LYP Composite Functional <=
  Basis Set: (6-31G* AUX)
    Blend: CC-PVDZ-JKFIT
  @DF-RKS Final Energy:  -381.44769912102549
    Total Energy =                       -381.4476991210254369
    Molecular point group: c1
  Basis Set: 6-31G*
    Blend: 6-31G*
  Basis Set: (6-31G* AUX)
    Blend: CC-PVDZ-JKFIT
   => B3LYP Composite Functional <=
  Basis Set: 6-31G*
    Blend: 6-31G*
   => B3LYP Composite Functional <=
  Basis Set: (6-31G* AUX)
    Blend: CC-PVDZ-JKFIT
  @DF-RKS Final Energy:  -381.45471712854174
    Total Energy =                       -381.4547171285417448
  Basis Set: 6-31G*
    Blend: 6-31G*
  Basis Set: (6-31G* AUX)
  @DF-RKS Final Energy:  -381.45843948521747
    Total Energy =                       -381.4584394852174682
  @DF-RKS Final Energy:  -381.46006608268749
    Total Energy =                       -381.4600660826874901
  @DF-RKS Final Energy:  -381.46158445873766
    Total Energy =                       -381.4615844587377183
  @DF-RKS Final Energy:  -381.46170816327538
    Total Energy =                       -381.4617081632753752
  @DF-RKS Final Energy:  -381.46173043263525
    Total Energy =                       -381.4617304326352496
   => B3LYP Composite Functional <=
  Basis Set: (6-31G* AUX)
    Blend: CC-PVDZ-JKFIT
  @DF-RKS Final Energy:  -381.46173474301537
    Total Energy =                       -381.4617347430153131
  Basis Set: 6-31G*
    Blend: 6-31G*
  Basis Set: (6-31G* AUX)
    Blend: CC-PVDZ-JKFIT
   => B3LYP Composite Functional <=
  Charge       = 1
  Multiplicity = 1
  Basis Set: 6-31G*
    Blend: 6-31G*
   => B3LYP Composite Functional <=
  Basis Set: (6-31G* AUX)
    Blend: CC-PVDZ-JKFIT

    Orbital Energies (a.u.)
    -----------------------

    Doubly Occupied:

       1A    -14.574925     2A    -14.565300     3A    -10.501065
       4A    -10.375807     5A    -10.358389     6A    -10.358104
       7A    -10.343415     8A    -10.341388     9A    -10.341272
      10A     -1.186862    11A     -1.094111    12A     -1.015802
      13A     -0.928243    14A     -0.903715    15A     -0.846781
      16A     -0.785465    17A     -0.773612    18A     -0.742272
      19A     -0.732771    20A     -0.685894    21A     -0.669278
      22A     -0.627605    23A     -0.618263    24A     -0.589372
      25A     -0.579555    26A     -0.576146    27A     -0.518331
      28A     -0.507511    29A     -0.499633    30A     -0.476623
      31A     -0.411459    32A     -0.406511

  @DF-RKS Final Energy:  -381.46173520374265

   => Energetics <=

    Nuclear Repulsion Energy =            416.5759556589570138
    One-Electron Energy =               -1328.2603660949753248
    Two-Electron Energy =                 574.6349105885913104
    DFT Exchange-Correlation Energy =     -44.4004421663156634
    Empirical Dispersion Energy =          -0.0117931900000000
    PCM Polarization Energy =               0.0000000000000000
    EFP Energy =                            0.0000000000000000
    Total Energy =                       -381.4617352037426485
    Molecular point group: c1
  Basis Set: 6-31G*
    Blend: 6-31G*
  Basis Set: (6-31G* AUX)
    Blend: CC-PVDZ-JKFIT
   => B3LYP Composite Functional <=

  -Total Gradient:
     Atom            X                  Y                   Z
    ------   -----------------  -----------------  -----------------
       1       -0.001265928182     0.006217066211    -0.005429292957
       2       -0.000033076098     0.000043331709     0.000010625333
       3        0.000013727346    -0.000006200672    -0.000009756335
       4       -0.000002481256    -0.000000570339     0.000011829535
       5        0.000009487772    -0.000007230078    -0.000001074636
       6       -0.000031990524     0.000013811724    -0.000004592470
       7        0.004694002146    -0.012805880516     0.009022270551
       8        0.000004360660    -0.000015712170    -0.000007661970
       9        0.000003929189    -0.000004557845     0.000000421896
      10       -0.000003966556     0.000001725851    -0.000005544283
      11        0.000000579007    -0.000003317034    -0.000004053533
      12        0.000002061371    -0.000005442498    -0.000001696020
      13       -0.011095688112     0.015513101013    -0.005418304053
      14        0.000051665667     0.000001064704    -0.000023100474
      15        0.000004497450     0.000016152628     0.000000378520
      16       -0.000007011492    -0.000033045369     0.000010590802
      17        0.007645363415    -0.008928058601     0.001870526738
      18        0.000018060022    -0.000011443123    -0.000027725518

  **** Optimization is complete! (in 9 steps) ****
    Final optimized geometry and variables:
    Molecular point group: c1

    Geometry (in Angstrom), charge = 1, multiplicity = 1:

    C            0.091508347526    -0.124023813823    -0.117746368707
    C            0.472885854480     1.217470121821     0.072526188355
    C           -0.128347927951     1.970027290492     1.076777978283
    C           -1.093532734727     1.391382280196     1.905489567740
    C           -1.469254974510     0.056735220111     1.725666962711
    C           -0.885499626685    -0.699562500367     0.715162015749
    C            0.705469654902    -0.914234257779    -1.193751905904
    H            1.186334389819     1.693199170145    -0.594246065984
    H            0.149853953771     3.010914801530     1.205945070102
    H           -1.555917227713     1.981707394766     2.690457600498
    H           -2.211744505243    -0.394596980511     2.375575236941
    H           -1.164017568930    -1.745065575500     0.609960914847
    N           -0.054779633045    -1.723597728710    -1.950813850580
    N            1.962712967093    -0.677781355327    -1.546254509935
    H            2.403571054591    -1.117121097102    -2.346408422602
    H            2.531653052662    -0.039636740023    -1.005109808092
    H           -0.787821722300    -2.255126085409    -1.493092330548
    H            0.404926496639    -2.272213541943    -2.673242359097

  Mulliken Charges: (a.u.)
   Center  Symbol    Alpha    Beta     Spin     Total
       1     C     2.93718  2.93718  0.00000  0.12565
       2     C     3.08331  3.08331  0.00000 -0.16662
       3     C     3.06204  3.06204  0.00000 -0.12408
       4     C     3.05154  3.05154  0.00000 -0.10307
       5     C     3.06243  3.06243  0.00000 -0.12485
       6     C     3.08355  3.08355  0.00000 -0.16711
       7     C     2.74875  2.74875  0.00000  0.50249
       8     H     0.41575  0.41575  0.00000  0.16850
       9     H     0.40519  0.40519  0.00000  0.18962
      10     H     0.40362  0.40362  0.00000  0.19276
      11     H     0.40524  0.40524  0.00000  0.18952
      12     H     0.41962  0.41962  0.00000  0.16075
      13     N     3.84562  3.84562  0.00000 -0.69124
      14     N     3.85852  3.85852  0.00000 -0.71703
      15     H     0.30426  0.30426  0.00000  0.39148
      16     H     0.29844  0.29844  0.00000  0.40312
      17     H     0.30255  0.30255  0.00000  0.39490
      18     H     0.31239  0.31239  0.00000  0.37522

   Total alpha = 32.00000, Total beta = 32.00000, Total charge =  1.00000

*** Psi4 exiting successfully. Buy a developer a beer!
