                               Psi4 1.1 release

  ==> Input File <==

--------------------------------------------------------------------------
set_num_threads(1)
set_memory(3145728000)

set { reference rks }
set { basis 6-31G* }

molecule MOL {
    1 1
    noreorient
    nocom
    symmetry c1
    C    0.000000   0.000000  -0.177864
    C    0.036678   1.219374   0.524165
    C    0.031764   1.213119   1.915444
    C   -0.000000  -0.000000   2.610107
    C   -0.031764  -1.213119   1.915444
    C   -0.036677  -1.219374   0.524165
    C    0.000000  -0.000000  -1.644734
    H    0.018170   2.164705  -0.010853
    H    0.042402   2.152895   2.457886
    H   -0.000000  -0.000000   3.695756
    H   -0.042402  -2.152895   2.457886
    H   -0.018170  -2.164705  -0.010853
    N   -0.712590  -0.905950  -2.308460
    N    0.712590   0.905950  -2.308461
    H    0.673432   1.006469  -3.315997
    H    1.377190   1.485970  -1.813317
    H   -0.746805  -1.861331  -1.977763
    H   -1.288839  -0.674037  -3.109035
}

set optking { frozen_dihedral = (" 1 7 13 17 ") }

set optking { dynamic_level = 1
 geom_maxiter = 250
 print_trajectory_xyz_file = True }

energy, wfn = optimize('B3LYP-D3', return_wfn=True)

import os
os.chdir(os.environ['HTMD_PSI4_WORKDIR'])

oeprop(wfn, 'DIPOLE', 'QUADRUPOLE', 'MULLIKEN_CHARGES')

with open('psi4out.xyz', 'w') as f:
    f.write('18 ' )
    f.write('%.12f\n' % energy)
    f.write(MOL.save_string_xyz())
--------------------------------------------------------------------------

    Molecular point group: c1
  Charge       = 1
  Multiplicity = 1
  Basis Set: 6-31G*
    Blend: 6-31G*
   => B3LYP Composite Functional <=
  Basis Set: (6-31G* AUX)
    Blend: CC-PVDZ-JKFIT
  @DF-RKS Final Energy:  -381.44769912610656
    Total Energy =                       -381.4476991261065564
    Molecular point group: c1
  Basis Set: 6-31G*
    Blend: 6-31G*
  Basis Set: (6-31G* AUX)
    Blend: CC-PVDZ-JKFIT
   => B3LYP Composite Functional <=
  Basis Set: 6-31G*
    Blend: 6-31G*
   => B3LYP Composite Functional <=
  Basis Set: (6-31G* AUX)
    Blend: CC-PVDZ-JKFIT
  @DF-RKS Final Energy:  -381.45471713667411
    Total Energy =                       -381.4547171366740486
  Basis Set: 6-31G*
    Blend: 6-31G*
  Basis Set: (6-31G* AUX)
  @DF-RKS Final Energy:  -381.45843949417406
    Total Energy =                       -381.4584394941740015
  @DF-RKS Final Energy:  -381.46006609143001
    Total Energy =                       -381.4600660914300647
  @DF-RKS Final Energy:  -381.46158445063213
    Total Energy =                       -381.4615844506320741
  @DF-RKS Final Energy:  -381.46170815230829
    Total Energy =                       -381.4617081523083471
  @DF-RKS Final Energy:  -381.46173042248699
    Total Energy =                       -381.4617304224869940
   => B3LYP Composite Functional <=
  Basis Set: (6-31G* AUX)
    Blend: CC-PVDZ-JKFIT
  @DF-RKS Final Energy:  -381.46173473219142
    Total Energy =                       -381.4617347321914167
  Basis Set: 6-31G*
    Blend: 6-31G*
  Basis Set: (6-31G* AUX)
    Blend: CC-PVDZ-JKFIT
   => B3LYP Composite Functional <=
  Charge       = 1
  Multiplicity = 1
  Basis Set: 6-31G*
    Blend: 6-31G*
   => B3LYP Composite Functional <=
  Basis Set: (6-31G* AUX)
    Blend: CC-PVDZ-JKFIT

    Orbital Energies (a.u.)
    -----------------------

    Doubly Occupied:

       1A    -14.574925     2A    -14.565300     3A    -10.501065
       4A    -10.375807     5A    -10.358389     6A    -10.358104
       7A    -10.343415     8A    -10.341388     9A    -10.341272
      10A     -1.186862    11A     -1.094111    12A     -1.015802
      13A     -0.928243    14A     -0.903715    15A     -0.846781
      16A     -0.785465    17A     -0.773612    18A     -0.742272
      19A     -0.732771    20A     -0.685894    21A     -0.669278
      22A     -0.627605    23A     -0.618263    24A     -0.589372
      25A     -0.579555    26A     -0.576146    27A     -0.518331
      28A     -0.507511    29A     -0.499633    30A     -0.476623
      31A     -0.411459    32A     -0.406511

  @DF-RKS Final Energy:  -381.46173519219190

   => Energetics <=

    Nuclear Repulsion Energy =            416.5759148278660859
    One-Electron Energy =               -1328.2602858570278386
    Two-Electron Energy =                 574.6348703064810479
    DFT Exchange-Correlation Energy =     -44.4004412795111492
    Empirical Dispersion Energy =          -0.0117931900000000
    PCM Polarization Energy =               0.0000000000000000
    EFP Energy =                            0.0000000000000000
    Total Energy =                       -381.4617351921918385
    Molecular point group: c1
  Basis Set: 6-31G*
    Blend: 6-31G*
  Basis Set: (6-31G* AUX)
    Blend: CC-PVDZ-JKFIT
   => B3LYP Composite Functional <=

  -Total Gradient:
     Atom            X                  Y                   Z
    ------   -----------------  -----------------  -----------------
       1       -0.005901358446     0.005908300761    -0.000031384059
       2       -0.000028662004     0.000014473820     0.000045240186
       3        0.000005596547     0.000005067203    -0.000016259156
       4        0.000005722875    -0.000005141872     0.000009404035
       5        0.000008155190    -0.000000610748    -0.000008666601
       6       -0.000029934034    -0.000004291126     0.000017790507
       7        0.012342787134    -0.010456686572    -0.002396076437
       8        0.000002385360    -0.000008036796    -0.000015925858
       9        0.000004312290    -0.000001687738    -0.000003805769
      10       -0.000006830961     0.000000927893    -0.000001297346
      11       -0.000001278430    -0.000001292148    -0.000004905049
      12        0.000001822749    -0.000002917884    -0.000005099138
      13       -0.015495209037     0.008252462913     0.009215403107
      14        0.000023407443     0.000034439935    -0.000038350966
      15       -0.000000522232     0.000015211456     0.000006973935
      16        0.000009863640    -0.000033170192    -0.000007120636
      17        0.009066463772    -0.003731783821    -0.006747864303
      18       -0.000001135401     0.000008264458    -0.000033983162

  **** Optimization is complete! (in 9 steps) ****
    Final optimized geometry and variables:
    Molecular point group: c1

    Geometry (in Angstrom), charge = 1, multiplicity = 1:

    C            0.012991643523    -0.016455660214    -0.169126506895
    C            0.074918835282     1.204143471356     0.529129632465
    C            0.069715064693     1.204162172981     1.920646589348
    C            0.022067136685    -0.003354797298     2.622649053161
    C           -0.030874843346    -1.218542860748     1.933227755820
    C           -0.041539440708    -1.228850849681     0.542667603321
    C           -0.007809814708    -0.019272154224    -1.638387496832
    H            0.064102559307     2.150990374674    -0.003107615103
    H            0.093133458286     2.147379807713     2.456668561133
    H            0.023055767760     0.002279689553     3.708202117221
    H           -0.058202643521    -2.156025813045     2.478893858227
    H           -0.049028142668    -2.182891148712     0.021642044506
    N           -0.838361123621    -0.845401213326    -2.297088122365
    N            0.639766830626     0.927376306361    -2.305718197248
    H            0.575279058575     1.036183110207    -3.311513479461
    H            1.237225547485     1.579046559304    -1.813652967834
    H           -0.958745168332    -1.786619097870    -1.937924078309
    H           -0.812715725317    -0.837076897032    -3.313692751154

  Mulliken Charges: (a.u.)
   Center  Symbol    Alpha    Beta     Spin     Total
       1     C     2.93718  2.93718  0.00000  0.12565
       2     C     3.08331  3.08331  0.00000 -0.16662
       3     C     3.06204  3.06204  0.00000 -0.12408
       4     C     3.05154  3.05154  0.00000 -0.10307
       5     C     3.06243  3.06243  0.00000 -0.12485
       6     C     3.08355  3.08355  0.00000 -0.16711
       7     C     2.74875  2.74875  0.00000  0.50249
       8     H     0.41575  0.41575  0.00000  0.16850
       9     H     0.40519  0.40519  0.00000  0.18962
      10     H     0.40362  0.40362  0.00000  0.19276
      11     H     0.40524  0.40524  0.00000  0.18952
      12     H     0.41962  0.41962  0.00000  0.16075
      13     N     3.84562  3.84562  0.00000 -0.69124
      14     N     3.85852  3.85852  0.00000 -0.71703
      15     H     0.30426  0.30426  0.00000  0.39148
      16     H     0.29844  0.29844  0.00000  0.40312
      17     H     0.30255  0.30255  0.00000  0.39490
      18     H     0.31239  0.31239  0.00000  0.37522

   Total alpha = 32.00000, Total beta = 32.00000, Total charge =  1.00000

*** Psi4 exiting successfully. Buy a developer a beer!
