                              Psi4 1.0.54 Driver

  ==> Input File <==

--------------------------------------------------------------------------
set_num_threads(1)
set_memory(3145728000)

set { reference rks }
set { basis 6-31G* }

molecule MOL {
    1 1
    noreorient
    nocom
    symmetry c1
    C    0.000000   0.000000  -0.177864
    C    0.036678   1.219374   0.524165
    C    0.031764   1.213119   1.915444
    C   -0.000000  -0.000000   2.610107
    C   -0.031764  -1.213119   1.915444
    C   -0.036677  -1.219374   0.524165
    C    0.000000  -0.000000  -1.644734
    H    0.018170   2.164705  -0.010853
    H    0.042402   2.152895   2.457886
    H   -0.000000  -0.000000   3.695756
    H   -0.042402  -2.152895   2.457886
    H   -0.018170  -2.164705  -0.010853
    N   -0.712590  -0.905950  -2.308460
    N    0.712590   0.905950  -2.308461
    H    0.673432   1.006469  -3.315997
    H    1.377190   1.485970  -1.813317
    H   -1.377190  -1.485970  -1.813316
    H   -0.673432  -1.006470  -3.315997
}

energy, wfn = energy('B3LYP-D3', return_wfn=True)

import os
os.chdir(os.environ['HTMD_PSI4_WORKDIR'])

oeprop(wfn, 'DIPOLE', 'QUADRUPOLE', 'MULLIKEN_CHARGES')
oeprop(wfn, 'GRID_ESP')

with open('psi4out.xyz', 'w') as f:
    f.write('18 ' )
    f.write('%.12f\n' % energy)
    f.write(MOL.save_string_xyz())
--------------------------------------------------------------------------

    Molecular point group: c1

    Geometry (in Angstrom), charge = 1, multiplicity = 1:

       Center              X                  Y                   Z               Mass
    ------------   -----------------  -----------------  -----------------  -----------------
           C          0.000000000000     0.000000000000    -0.177864000000    12.000000000000
           C          0.036678000000     1.219374000000     0.524165000000    12.000000000000
           C          0.031764000000     1.213119000000     1.915444000000    12.000000000000
           C          0.000000000000     0.000000000000     2.610107000000    12.000000000000
           C         -0.031764000000    -1.213119000000     1.915444000000    12.000000000000
           C         -0.036677000000    -1.219374000000     0.524165000000    12.000000000000
           C          0.000000000000     0.000000000000    -1.644734000000    12.000000000000
           H          0.018170000000     2.164705000000    -0.010853000000     1.007825032070
           H          0.042402000000     2.152895000000     2.457886000000     1.007825032070
           H          0.000000000000     0.000000000000     3.695756000000     1.007825032070
           H         -0.042402000000    -2.152895000000     2.457886000000     1.007825032070
           H         -0.018170000000    -2.164705000000    -0.010853000000     1.007825032070
           N         -0.712590000000    -0.905950000000    -2.308460000000    14.003074004780
           N          0.712590000000     0.905950000000    -2.308461000000    14.003074004780
           H          0.673432000000     1.006469000000    -3.315997000000     1.007825032070
           H          1.377190000000     1.485970000000    -1.813317000000     1.007825032070
           H         -1.377190000000    -1.485970000000    -1.813316000000     1.007825032070
           H         -0.673432000000    -1.006470000000    -3.315997000000     1.007825032070

  Charge       = 1
  Multiplicity = 1
  Basis Set: 6-31G*
   => B3LYP-D3 Composite Functional <=
  Basis Set:

    Orbital Energies (a.u.)
    -----------------------

    Doubly Occupied:

       1A    -14.568040     2A    -14.568032     3A    -10.497176
       4A    -10.373185     5A    -10.356119     6A    -10.356109
       7A    -10.342976     8A    -10.340409     9A    -10.340352
      10A     -1.183828    11A     -1.091958    12A     -1.014247
      13A     -0.926593    14A     -0.902175    15A     -0.845402
      16A     -0.785713    17A     -0.773383    18A     -0.741669
      19A     -0.732897    20A     -0.688869    21A     -0.669058
      22A     -0.625499    23A     -0.617235    24A     -0.586923
      25A     -0.579018    26A     -0.572822    27A     -0.518319
      28A     -0.505467    29A     -0.498057    30A     -0.472890
      31A     -0.411672    32A     -0.405683

  @DF-RKS Final Energy:  -381.47050945058368

   => Energetics <=

    Nuclear Repulsion Energy =            416.9186471081077343
    One-Electron Energy =               -1329.0468545524279307
    Two-Electron Energy =                 575.0755994754188123
    DFT Exchange-Correlation Energy =     -44.4059693616822955
    Empirical Dispersion Energy =          -0.0119321200000000
    PCM Polarization Energy =               0.0000000000000000
    EFP Energy =                            0.0000000000000000
    Total Energy =                       -381.4705094505836769

  Mulliken Charges: (a.u.)
   Center  Symbol    Alpha    Beta     Spin     Total
       1     C     2.95719  2.95719  0.00000  0.08562
       2     C     3.08206  3.08206  0.00000 -0.16412
       3     C     3.06249  3.06249  0.00000 -0.12497
       4     C     3.05149  3.05149  0.00000 -0.10297
       5     C     3.06250  3.06250  0.00000 -0.12499
       6     C     3.08206  3.08206  0.00000 -0.16413
       7     C     2.72192  2.72192  0.00000  0.55616
       8     H     0.41420  0.41420  0.00000  0.17159
       9     H     0.40544  0.40544  0.00000  0.18912
      10     H     0.40388  0.40388  0.00000  0.19224
      11     H     0.40544  0.40544  0.00000  0.18912
      12     H     0.41420  0.41420  0.00000  0.17160
      13     N     3.86322  3.86322  0.00000 -0.72644
      14     N     3.86323  3.86323  0.00000 -0.72645
      15     H     0.30570  0.30570  0.00000  0.38861
      16     H     0.29964  0.29964  0.00000  0.40071
      17     H     0.29964  0.29964  0.00000  0.40071
      18     H     0.30570  0.30570  0.00000  0.38861

   Total alpha = 32.00000, Total beta = 32.00000, Total charge =  1.00000

*** Psi4 exiting successfully. Buy a developer a beer!
