                               Psi4 1.1 release

  ==> Input File <==

--------------------------------------------------------------------------
set_num_threads( 8 )
memory 2.000000 gb

set { reference rks }
set { basis 6-31G* }

molecule MOL {
    1 1
    noreorient
    nocom
    symmetry c1
    C   -0.000000   0.000000  -0.177864
    C    0.036677   1.219374   0.524165
    C    0.031764   1.213119   1.915444
    C   -0.000000  -0.000000   2.610107
    C   -0.031764  -1.213119   1.915444
    C   -0.036677  -1.219374   0.524165
    C   -0.000000   0.000000  -1.644734
    H    0.018169   2.164705  -0.010853
    H    0.042401   2.152895   2.457886
    H   -0.000000  -0.000000   3.695756
    H   -0.042401  -2.152895   2.457886
    H   -0.018169  -2.164705  -0.010853
    N   -0.712589  -0.905950  -2.308461
    N    0.712589   0.905950  -2.308461
    H    0.673432   1.006470  -3.315997
    H    1.377189   1.485970  -1.813317
    H   -1.377189  -1.485970  -1.813317
    H   -0.673432  -1.006470  -3.315997
}

energy, wfn = energy('B3LYP-D3', return_wfn=True)

import os
os.chdir(os.environ['HTMD_PSI4_WORKDIR'])

oeprop(wfn, 'DIPOLE', 'QUADRUPOLE', 'MULLIKEN_CHARGES')
oeprop(wfn, 'GRID_ESP')

with open('psi4out.xyz', 'w') as f:
    f.write('18 ' )
    f.write('%.12f\n' % energy)
    f.write(MOL.save_string_xyz())
--------------------------------------------------------------------------

    Molecular point group: c1

    Geometry (in Angstrom), charge = 1, multiplicity = 1:

       Center              X                  Y                   Z               Mass
    ------------   -----------------  -----------------  -----------------  -----------------
           C          0.000000000000     0.000000000000    -0.177864000000    12.000000000000
           C          0.036677000000     1.219374000000     0.524165000000    12.000000000000
           C          0.031764000000     1.213119000000     1.915444000000    12.000000000000
           C          0.000000000000     0.000000000000     2.610107000000    12.000000000000
           C         -0.031764000000    -1.213119000000     1.915444000000    12.000000000000
           C         -0.036677000000    -1.219374000000     0.524165000000    12.000000000000
           C          0.000000000000     0.000000000000    -1.644734000000    12.000000000000
           H          0.018169000000     2.164705000000    -0.010853000000     1.007825032070
           H          0.042401000000     2.152895000000     2.457886000000     1.007825032070
           H          0.000000000000     0.000000000000     3.695756000000     1.007825032070
           H         -0.042401000000    -2.152895000000     2.457886000000     1.007825032070
           H         -0.018169000000    -2.164705000000    -0.010853000000     1.007825032070
           N         -0.712589000000    -0.905950000000    -2.308461000000    14.003074004780
           N          0.712589000000     0.905950000000    -2.308461000000    14.003074004780
           H          0.673432000000     1.006470000000    -3.315997000000     1.007825032070
           H          1.377189000000     1.485970000000    -1.813317000000     1.007825032070
           H         -1.377189000000    -1.485970000000    -1.813317000000     1.007825032070
           H         -0.673432000000    -1.006470000000    -3.315997000000     1.007825032070

  Charge       = 1
  Multiplicity = 1
  Basis Set: 6-31G*
    Blend: 6-31G*
   => B3LYP Composite Functional <=
  Basis Set: (6-31G* AUX)
    Blend: CC-PVDZ-JKFIT

    Orbital Energies (a.u.)
    -----------------------

    Doubly Occupied:

       1A    -14.568045     2A    -14.568032     3A    -10.497179
       4A    -10.373182     5A    -10.356122     6A    -10.356113
       7A    -10.342968     8A    -10.340404     9A    -10.340347
      10A     -1.183829    11A     -1.091959    12A     -1.014245
      13A     -0.926591    14A     -0.902174    15A     -0.845402
      16A     -0.785713    17A     -0.773382    18A     -0.741668
      19A     -0.732897    20A     -0.688869    21A     -0.669058
      22A     -0.625498    23A     -0.617235    24A     -0.586922
      25A     -0.579016    26A     -0.572821    27A     -0.518318
      28A     -0.505466    29A     -0.498055    30A     -0.472891
      31A     -0.411670    32A     -0.405682

  @DF-RKS Final Energy:  -381.47050945401867

   => Energetics <=

    Nuclear Repulsion Energy =            416.9186606290354575
    One-Electron Energy =               -1329.0467598128675490
    Two-Electron Energy =                 575.0754843094517810
    DFT Exchange-Correlation Energy =     -44.4059624596383458
    Empirical Dispersion Energy =          -0.0119321200000000
    PCM Polarization Energy =               0.0000000000000000
    EFP Energy =                            0.0000000000000000
    Total Energy =                       -381.4705094540186110

  Mulliken Charges: (a.u.)
   Center  Symbol    Alpha    Beta     Spin     Total
       1     C     2.95718  2.95718  0.00000  0.08563
       2     C     3.08207  3.08207  0.00000 -0.16414
       3     C     3.06248  3.06248  0.00000 -0.12497
       4     C     3.05148  3.05148  0.00000 -0.10296
       5     C     3.06248  3.06248  0.00000 -0.12497
       6     C     3.08207  3.08207  0.00000 -0.16414
       7     C     2.72192  2.72192  0.00000  0.55615
       8     H     0.41420  0.41420  0.00000  0.17159
       9     H     0.40544  0.40544  0.00000  0.18911
      10     H     0.40388  0.40388  0.00000  0.19223
      11     H     0.40544  0.40544  0.00000  0.18911
      12     H     0.41420  0.41420  0.00000  0.17160
      13     N     3.86323  3.86323  0.00000 -0.72646
      14     N     3.86322  3.86322  0.00000 -0.72644
      15     H     0.30570  0.30570  0.00000  0.38861
      16     H     0.29964  0.29964  0.00000  0.40071
      17     H     0.29964  0.29964  0.00000  0.40072
      18     H     0.30570  0.30570  0.00000  0.38861

   Total alpha = 32.00000, Total beta = 32.00000, Total charge =  1.00000

*** Psi4 exiting successfully. Buy a developer a beer!
