                               Psi4 1.1 release

  ==> Input File <==

--------------------------------------------------------------------------
set_num_threads(1)
set_memory(4203741184)

set { reference rks }
set { basis cc-pVDZ }

molecule MOL {
    0 1
    noreorient
    nocom
    symmetry c1
    O    1.141000   0.017000   0.083000
    C    2.558000   0.086000  -0.005000
    C    3.192000  -0.789000   1.067000
    O    4.610000  -0.719000   0.979000
    H    0.910443   0.179942   1.013986
    H    2.874000   1.128000   0.115000
    H    2.871000  -0.243000  -1.001000
    H    2.876000  -1.830000   0.947000
    H    2.879000  -0.459000   2.064000
    H    4.961000  -1.293000   1.682000
}

set optking { frozen_dihedral = (" 3 2 1 5 ") }

energy, wfn = energy('B3LYP-D3', return_wfn=True)

import os
os.chdir(os.environ['HTMD_PSI4_WORKDIR'])

oeprop(wfn, 'DIPOLE', 'QUADRUPOLE', 'MULLIKEN_CHARGES')

with open('psi4out.xyz', 'w') as f:
    f.write('10 ' )
    f.write('%.12f\n' % energy)
    f.write(MOL.save_string_xyz())
--------------------------------------------------------------------------

    Molecular point group: c1

    Geometry (in Angstrom), charge = 0, multiplicity = 1:

       Center              X                  Y                   Z               Mass
    ------------   -----------------  -----------------  -----------------  -----------------
           O          1.141000000000     0.017000000000     0.083000000000    15.994914619560
           C          2.558000000000     0.086000000000    -0.005000000000    12.000000000000
           C          3.192000000000    -0.789000000000     1.067000000000    12.000000000000
           O          4.610000000000    -0.719000000000     0.979000000000    15.994914619560
           H          0.910443000000     0.179942000000     1.013986000000     1.007825032070
           H          2.874000000000     1.128000000000     0.115000000000     1.007825032070
           H          2.871000000000    -0.243000000000    -1.001000000000     1.007825032070
           H          2.876000000000    -1.830000000000     0.947000000000     1.007825032070
           H          2.879000000000    -0.459000000000     2.064000000000     1.007825032070
           H          4.961000000000    -1.293000000000     1.682000000000     1.007825032070

  Charge       = 0
  Multiplicity = 1
  Basis Set: CC-PVDZ
    Blend: CC-PVDZ
   => B3LYP Composite Functional <=
  Basis Set: (CC-PVDZ AUX)
    Blend: CC-PVDZ-JKFIT

    Orbital Energies (a.u.)
    -----------------------

    Doubly Occupied:

       1A    -19.135845     2A    -19.134603     3A    -10.231396
       4A    -10.227161     5A     -1.023224     6A     -1.011613
       7A     -0.732185     8A     -0.620255     9A     -0.518311
      10A     -0.494972    11A     -0.460011    12A     -0.428325
      13A     -0.398546    14A     -0.348145    15A     -0.324208
      16A     -0.269594    17A     -0.268258

  @DF-RKS Final Energy:  -230.25838556211644

   => Energetics <=

    Nuclear Repulsion Energy =            129.9623959690709398
    One-Electron Energy =                -571.5557660565204969
    Two-Electron Energy =                 235.8775479996022568
    DFT Exchange-Correlation Energy =     -24.5379148442691424
    Empirical Dispersion Energy =          -0.0046486300000000
    PCM Polarization Energy =               0.0000000000000000
    EFP Energy =                            0.0000000000000000
    Total Energy =                       -230.2583855621164446

  Mulliken Charges: (a.u.)
   Center  Symbol    Alpha    Beta     Spin     Total
       1     O     4.13843  4.13843  0.00000 -0.27685
       2     C     2.92445  2.92445  0.00000  0.15110
       3     C     2.95109  2.95109  0.00000  0.09781
       4     O     4.13888  4.13888  0.00000 -0.27777
       5     H     0.43175  0.43175  0.00000  0.13650
       6     H     0.49689  0.49689  0.00000  0.00623
       7     H     0.48597  0.48597  0.00000  0.02806
       8     H     0.49776  0.49776  0.00000  0.00448
       9     H     0.50674  0.50674  0.00000 -0.01347
      10     H     0.42805  0.42805  0.00000  0.14391

   Total alpha = 17.00000, Total beta = 17.00000, Total charge = -0.00000

*** Psi4 exiting successfully. Buy a developer a beer!
