                               Psi4 1.1 release

  ==> Input File <==

--------------------------------------------------------------------------
set_num_threads(1)
set_memory(4203741184)

set { reference rks }
set { basis cc-pVDZ }

molecule MOL {
    0 1
    noreorient
    nocom
    symmetry c1
    O    1.141000   0.017000   0.083000
    C    2.558000   0.086000  -0.005000
    C    3.192000  -0.789000   1.067000
    O    4.610000  -0.719000   0.979000
    H    0.799494   0.872721  -0.229341
    H    2.874000   1.128000   0.115000
    H    2.871000  -0.243000  -1.001000
    H    2.876000  -1.830000   0.947000
    H    2.879000  -0.459000   2.064000
    H    4.961000  -1.293000   1.682000
}

set optking { frozen_dihedral = (" 3 2 1 5 ") }

energy, wfn = energy('B3LYP-D3', return_wfn=True)

import os
os.chdir(os.environ['HTMD_PSI4_WORKDIR'])

oeprop(wfn, 'DIPOLE', 'QUADRUPOLE', 'MULLIKEN_CHARGES')

with open('psi4out.xyz', 'w') as f:
    f.write('10 ' )
    f.write('%.12f\n' % energy)
    f.write(MOL.save_string_xyz())
--------------------------------------------------------------------------

    Molecular point group: c1

    Geometry (in Angstrom), charge = 0, multiplicity = 1:

       Center              X                  Y                   Z               Mass
    ------------   -----------------  -----------------  -----------------  -----------------
           O          1.141000000000     0.017000000000     0.083000000000    15.994914619560
           C          2.558000000000     0.086000000000    -0.005000000000    12.000000000000
           C          3.192000000000    -0.789000000000     1.067000000000    12.000000000000
           O          4.610000000000    -0.719000000000     0.979000000000    15.994914619560
           H          0.799494000000     0.872721000000    -0.229341000000     1.007825032070
           H          2.874000000000     1.128000000000     0.115000000000     1.007825032070
           H          2.871000000000    -0.243000000000    -1.001000000000     1.007825032070
           H          2.876000000000    -1.830000000000     0.947000000000     1.007825032070
           H          2.879000000000    -0.459000000000     2.064000000000     1.007825032070
           H          4.961000000000    -1.293000000000     1.682000000000     1.007825032070

  Charge       = 0
  Multiplicity = 1
  Basis Set: CC-PVDZ
    Blend: CC-PVDZ
   => B3LYP Composite Functional <=
  Basis Set: (CC-PVDZ AUX)
    Blend: CC-PVDZ-JKFIT

    Orbital Energies (a.u.)
    -----------------------

    Doubly Occupied:

       1A    -19.132043     2A    -19.131195     3A    -10.226359
       4A    -10.225308     5A     -1.018927     6A     -1.008546
       7A     -0.731844     8A     -0.604298     9A     -0.526074
      10A     -0.485481    11A     -0.466897    12A     -0.414544
      13A     -0.395295    14A     -0.347060    15A     -0.320145
      16A     -0.265152    17A     -0.263451

  @DF-RKS Final Energy:  -230.25692675519696

   => Energetics <=

    Nuclear Repulsion Energy =            129.4733334622491441
    One-Electron Energy =                -570.7024057407941200
    Two-Electron Energy =                 235.5155593606131106
    DFT Exchange-Correlation Energy =     -24.5390003372650547
    Empirical Dispersion Energy =          -0.0044135000000000
    PCM Polarization Energy =               0.0000000000000000
    EFP Energy =                            0.0000000000000000
    Total Energy =                       -230.2569267551969574

  Mulliken Charges: (a.u.)
   Center  Symbol    Alpha    Beta     Spin     Total
       1     O     4.14026  4.14026  0.00000 -0.28053
       2     C     2.93686  2.93686  0.00000  0.12629
       3     C     2.93599  2.93599  0.00000  0.12801
       4     O     4.14088  4.14088  0.00000 -0.28177
       5     H     0.42699  0.42699  0.00000  0.14601
       6     H     0.49804  0.49804  0.00000  0.00392
       7     H     0.49599  0.49599  0.00000  0.00803
       8     H     0.49731  0.49731  0.00000  0.00539
       9     H     0.50020  0.50020  0.00000 -0.00041
      10     H     0.42748  0.42748  0.00000  0.14505

   Total alpha = 17.00000, Total beta = 17.00000, Total charge = -0.00000

*** Psi4 exiting successfully. Buy a developer a beer!
