                               Psi4 1.1 release

  ==> Input File <==

--------------------------------------------------------------------------
set_num_threads(1)
set_memory(4203741184)

set { reference rks }
set { basis cc-pVDZ }

molecule MOL {
    0 1
    noreorient
    nocom
    symmetry c1
    O    1.050400   0.042900  -0.048100
    C    2.474100   0.047400  -0.029000
    C    3.002600  -1.068900  -0.932000
    N    4.462700  -1.072400  -1.006800
    H    0.760400   0.728400   0.578000
    H    2.809900  -0.097900   1.003200
    H    2.817400   1.026800  -0.378600
    H    2.581000  -0.963300  -1.938400
    H    2.653800  -2.036400  -0.553400
    H    4.842812  -0.565081  -0.208286
    H    4.750105  -0.547820  -1.832915
}

set optking { frozen_dihedral = (" 2 3 4 10 ") }

energy, wfn = energy('B3LYP-D3', return_wfn=True)

import os
os.chdir(os.environ['HTMD_PSI4_WORKDIR'])

oeprop(wfn, 'DIPOLE', 'QUADRUPOLE', 'MULLIKEN_CHARGES')

with open('psi4out.xyz', 'w') as f:
    f.write('11 ' )
    f.write('%.12f\n' % energy)
    f.write(MOL.save_string_xyz())
--------------------------------------------------------------------------

    Molecular point group: c1

    Geometry (in Angstrom), charge = 0, multiplicity = 1:

       Center              X                  Y                   Z               Mass
    ------------   -----------------  -----------------  -----------------  -----------------
           O          1.050400000000     0.042900000000    -0.048100000000    15.994914619560
           C          2.474100000000     0.047400000000    -0.029000000000    12.000000000000
           C          3.002600000000    -1.068900000000    -0.932000000000    12.000000000000
           N          4.462700000000    -1.072400000000    -1.006800000000    14.003074004780
           H          0.760400000000     0.728400000000     0.578000000000     1.007825032070
           H          2.809900000000    -0.097900000000     1.003200000000     1.007825032070
           H          2.817400000000     1.026800000000    -0.378600000000     1.007825032070
           H          2.581000000000    -0.963300000000    -1.938400000000     1.007825032070
           H          2.653800000000    -2.036400000000    -0.553400000000     1.007825032070
           H          4.842812000000    -0.565081000000    -0.208286000000     1.007825032070
           H          4.750105000000    -0.547820000000    -1.832915000000     1.007825032070

  Charge       = 0
  Multiplicity = 1
  Basis Set: CC-PVDZ
    Blend: CC-PVDZ
   => B3LYP Composite Functional <=
  Basis Set: (CC-PVDZ AUX)
    Blend: CC-PVDZ-JKFIT

    Orbital Energies (a.u.)
    -----------------------

    Doubly Occupied:

       1A    -19.129432     2A    -14.306405     3A    -10.226868
       4A    -10.201986     5A     -1.012058     6A     -0.879273
       7A     -0.711369     8A     -0.605381     9A     -0.508927
      10A     -0.490776    11A     -0.450267    12A     -0.416683
      13A     -0.396376    14A     -0.356663    15A     -0.329527
      16A     -0.264174    17A     -0.234036

  @DF-RKS Final Energy:  -210.39006352311040

   => Energetics <=

    Nuclear Repulsion Energy =            130.8496784397573549
    One-Electron Energy =                -544.5565129494716530
    Two-Electron Energy =                 226.8088273058005484
    DFT Exchange-Correlation Energy =     -23.4870255291966181
    Empirical Dispersion Energy =          -0.0050307900000000
    PCM Polarization Energy =               0.0000000000000000
    EFP Energy =                            0.0000000000000000
    Total Energy =                       -210.3900635231103990

  Mulliken Charges: (a.u.)
   Center  Symbol    Alpha    Beta     Spin     Total
       1     O     4.13801  4.13801  0.00000 -0.27602
       2     C     2.94339  2.94339  0.00000  0.11322
       3     C     2.97863  2.97863  0.00000  0.04273
       4     N     3.59045  3.59045  0.00000 -0.18090
       5     H     0.43078  0.43078  0.00000  0.13844
       6     H     0.50018  0.50018  0.00000 -0.00036
       7     H     0.50636  0.50636  0.00000 -0.01272
       8     H     0.49133  0.49133  0.00000  0.01733
       9     H     0.49014  0.49014  0.00000  0.01971
      10     H     0.46764  0.46764  0.00000  0.06472
      11     H     0.46307  0.46307  0.00000  0.07385

   Total alpha = 17.00000, Total beta = 17.00000, Total charge =  0.00000

*** Psi4 exiting successfully. Buy a developer a beer!
