                               Psi4 1.1 release

  ==> Input File <==

--------------------------------------------------------------------------
set {
	reference rks
	basis 6-31G*
}

set_num_threads( 8 )
memory 2 gb

molecule MOL {
1 1

C	 0.892877	 -0.422199	 -0.573970
C	 1.041356	 0.386758	 0.568224
C	 1.886095	 -0.021254	 1.595678
C	 2.589903	 -1.224642	 1.487334
C	 2.448034	 -2.028149	 0.351784
C	 1.599042	 -1.635277	 -0.678063
C	 -0.000000	 -0.000000	 -1.658508
H	 0.464191	 1.300861	 0.675615
H	 1.988105	 0.592916	 2.484454
H	 3.250733	 -1.537117	 2.290015
H	 3.006390	 -2.954574	 0.265123
H	 1.524882	 -2.241399	 -1.576592
N	 -0.712589	 -0.905950	 -2.322235
N	 -0.095426	 1.288023	 -1.976243
H	 -0.763439	 1.640073	 -2.651954
H	 0.560344	 1.952988	 -1.587564
H	 -1.377189	 -1.485970	 -1.827091
H	 -0.673431	 -1.006470	 -3.329771

	symmetry c1
}
set optking { dynamic_level = 1 }
set optking {
	frozen_dihedral = ("
		1 7 13 17
	")
}

ee,wfn = optimize('b3lyp-d3', return_wfn=True)
oeprop( wfn, 'DIPOLE', 'QUADRUPOLE', 'MULLIKEN_CHARGES')
f=open( 'psi4out.xyz', 'w' )
f.write( "18  " )
f.write( str(ee) + "\n" )
f.write( MOL.save_string_xyz() )
f.close()
--------------------------------------------------------------------------

    Molecular point group: c1
  Charge       = 1
  Multiplicity = 1
  Basis Set: 6-31G*
    Blend: 6-31G*
   => B3LYP Composite Functional <=
  Basis Set: (6-31G* AUX)
    Blend: CC-PVDZ-JKFIT
  @DF-RKS Final Energy:  -381.44732973264570
    Total Energy =                       -381.4473297326456986
    Molecular point group: c1
  Basis Set: 6-31G*
    Blend: 6-31G*
  Basis Set: (6-31G* AUX)
    Blend: CC-PVDZ-JKFIT
   => B3LYP Composite Functional <=
  Basis Set: 6-31G*
    Blend: 6-31G*
   => B3LYP Composite Functional <=
  Basis Set: (6-31G* AUX)
    Blend: CC-PVDZ-JKFIT
  @DF-RKS Final Energy:  -381.45506750093523
    Total Energy =                       -381.4550675009352290
  Basis Set: 6-31G*
    Blend: 6-31G*
  Basis Set: (6-31G* AUX)
  @DF-RKS Final Energy:  -381.45774999013031
    Total Energy =                       -381.4577499901303099
  @DF-RKS Final Energy:  -381.46121840436609
    Total Energy =                       -381.4612184043660932
  @DF-RKS Final Energy:  -381.46159514604051
    Total Energy =                       -381.4615951460405654
  @DF-RKS Final Energy:  -381.46161248314206
    Total Energy =                       -381.4616124831420620
  @DF-RKS Final Energy:  -381.46152297146023
    Total Energy =                       -381.4615229714602265
  @DF-RKS Final Energy:  -381.46161248404894
    Total Energy =                       -381.4616124840489988
   => B3LYP Composite Functional <=
  Basis Set: (6-31G* AUX)
    Blend: CC-PVDZ-JKFIT
  @DF-RKS Final Energy:  -381.46161384791827
    Total Energy =                       -381.4616138479182723
  Basis Set: 6-31G*
    Blend: 6-31G*
  Basis Set: (6-31G* AUX)
    Blend: CC-PVDZ-JKFIT
   => B3LYP Composite Functional <=
  Charge       = 1
  Multiplicity = 1
  Basis Set: 6-31G*
    Blend: 6-31G*
   => B3LYP Composite Functional <=
  Basis Set: (6-31G* AUX)
    Blend: CC-PVDZ-JKFIT

    Orbital Energies (a.u.)
    -----------------------

    Doubly Occupied:

       1A    -14.575708     2A    -14.557877     3A    -10.496609
       4A    -10.372317     5A    -10.358398     6A    -10.355263
       7A    -10.346486     8A    -10.341868     9A    -10.340311
      10A     -1.182387    11A     -1.088691    12A     -1.014954
      13A     -0.928235    14A     -0.902912    15A     -0.842913
      16A     -0.779683    17A     -0.771982    18A     -0.736891
      19A     -0.727607    20A     -0.694508    21A     -0.668481
      22A     -0.625892    23A     -0.607653    24A     -0.582261
      25A     -0.580070    26A     -0.567640    27A     -0.517613
      28A     -0.506589    29A     -0.498234    30A     -0.478581
      31A     -0.413854    32A     -0.406482

  @DF-RKS Final Energy:  -381.46161487281188

   => Energetics <=

    Nuclear Repulsion Energy =            416.5788776018437716
    One-Electron Energy =               -1328.4006464653448347
    Two-Electron Energy =                 574.7700441469417001
    DFT Exchange-Correlation Energy =     -44.3980960562524203
    Empirical Dispersion Energy =          -0.0117941000000000
    PCM Polarization Energy =               0.0000000000000000
    EFP Energy =                            0.0000000000000000
    Total Energy =                       -381.4616148728118219
    Molecular point group: c1
  Basis Set: 6-31G*
    Blend: 6-31G*
  Basis Set: (6-31G* AUX)
    Blend: CC-PVDZ-JKFIT
   => B3LYP Composite Functional <=

  -Total Gradient:
     Atom            X                  Y                   Z
    ------   -----------------  -----------------  -----------------
       1        0.006844289137     0.000595914131    -0.005409297760
       2        0.000012859951     0.000007084896     0.000010052353
       3       -0.000016522267     0.000001171845    -0.000002892490
       4        0.000005688859    -0.000000770206     0.000007522226
       5       -0.000002817852     0.000005139726    -0.000021055904
       6        0.000017703029    -0.000001194493     0.000017305822
       7       -0.013659928628     0.001534894756     0.007516118176
       8       -0.000004169670     0.000006635891    -0.000014782702
       9        0.000001528414     0.000000790043    -0.000000999048
      10       -0.000000796961     0.000001670505     0.000001006684
      11       -0.000005662907    -0.000003041962     0.000000896207
      12       -0.000001510667    -0.000005153551    -0.000006690274
      13        0.016866725770    -0.009476355557    -0.000428500378
      14       -0.000120101726     0.000054357036     0.000083433638
      15       -0.000005986703     0.000000874152     0.000007031025
      16       -0.000007696188     0.000004846382     0.000012543625
      17       -0.009929343083     0.007294982483    -0.001806365659
      18        0.000004427076    -0.000020320355     0.000016754644

  **** Optimization is complete! (in 3 steps) ****
    Final optimized geometry and variables:
    Molecular point group: c1

    Geometry (in Angstrom), charge = 1, multiplicity = 1:

    C           -0.143104684934     0.057555229579    -0.119857364370
    C            0.039075530383     0.891930171015     1.003831146092
    C            0.899565166976     0.500633584996     2.021348352819
    C            1.578044715171    -0.720773059804     1.930596138972
    C            1.392715973512    -1.556878979075     0.824721808957
    C            0.531268694503    -1.178275712454    -0.198790000115
    C           -1.023136498807     0.462676186507    -1.207151530910
    H           -0.524851266799     1.815683703831     1.102658706669
    H            1.033013926654     1.135642011823     2.891040053544
    H            2.251330858463    -1.022304683960     2.727287164639
    H            1.927680741285    -2.498577169490     0.757463432730
    H            0.410389135524    -1.805806732466    -1.075367349994
    N           -1.571423492295    -0.480834826207    -2.012685874934
    N           -1.136091957046     1.745192817964    -1.532560251469
    H           -1.794152790029     2.073958728351    -2.230219688471
    H           -0.517657266320     2.436053816664    -1.124256706541
    H           -2.164954971365    -1.177482268396    -1.570303005074
    H           -1.989694268502    -0.150784951230    -2.879377892621

  Mulliken Charges: (a.u.)
   Center  Symbol    Alpha    Beta     Spin     Total
       1     C     2.95319  2.95319  0.00000  0.09362
       2     C     3.08449  3.08449  0.00000 -0.16899
       3     C     3.06273  3.06273  0.00000 -0.12545
       4     C     3.05015  3.05015  0.00000 -0.10030
       5     C     3.06264  3.06264  0.00000 -0.12528
       6     C     3.07348  3.07348  0.00000 -0.14697
       7     C     2.74927  2.74927  0.00000  0.50147
       8     H     0.41527  0.41527  0.00000  0.16947
       9     H     0.40514  0.40514  0.00000  0.18972
      10     H     0.40294  0.40294  0.00000  0.19412
      11     H     0.40471  0.40471  0.00000  0.19058
      12     H     0.40613  0.40613  0.00000  0.18775
      13     N     3.85785  3.85785  0.00000 -0.71571
      14     N     3.85181  3.85181  0.00000 -0.70361
      15     H     0.30496  0.30496  0.00000  0.39009
      16     H     0.29929  0.29929  0.00000  0.40142
      17     H     0.30202  0.30202  0.00000  0.39597
      18     H     0.31395  0.31395  0.00000  0.37210

   Total alpha = 32.00000, Total beta = 32.00000, Total charge =  1.00000

*** Psi4 exiting successfully. Buy a developer a beer!
