                               Psi4 1.1 release

  ==> Input File <==

--------------------------------------------------------------------------
set_num_threads(1)
set_memory(3145728000)

set { reference rks }
set { basis 6-31G* }

molecule MOL {
    1 1
    noreorient
    nocom
    symmetry c1
    C    0.000000   0.000000  -0.177864
    C    0.036678   1.219374   0.524165
    C    0.031764   1.213119   1.915444
    C   -0.000000  -0.000000   2.610107
    C   -0.031764  -1.213119   1.915444
    C   -0.036677  -1.219374   0.524165
    C    0.000000  -0.000000  -1.644734
    H    0.018170   2.164705  -0.010853
    H    0.042402   2.152895   2.457886
    H   -0.000000  -0.000000   3.695756
    H   -0.042402  -2.152895   2.457886
    H   -0.018170  -2.164705  -0.010853
    N   -0.712590  -0.905950  -2.308460
    N    0.712590   0.905950  -2.308461
    H    0.673432   1.006469  -3.315997
    H    1.377190   1.485970  -1.813317
    H   -1.633023  -1.164261  -1.977763
    H   -0.405286  -1.314607  -3.183292
}

set optking { frozen_dihedral = (" 1 7 13 17 ") }

set optking { dynamic_level = 1
 geom_maxiter = 250
 print_trajectory_xyz_file = True }

energy, wfn = optimize('B3LYP-D3', return_wfn=True)

import os
os.chdir(os.environ['HTMD_PSI4_WORKDIR'])

oeprop(wfn, 'DIPOLE', 'QUADRUPOLE', 'MULLIKEN_CHARGES')

with open('psi4out.xyz', 'w') as f:
    f.write('18 ' )
    f.write('%.12f\n' % energy)
    f.write(MOL.save_string_xyz())
--------------------------------------------------------------------------

    Molecular point group: c1
  Charge       = 1
  Multiplicity = 1
  Basis Set: 6-31G*
    Blend: 6-31G*
   => B3LYP Composite Functional <=
  Basis Set: (6-31G* AUX)
    Blend: CC-PVDZ-JKFIT
  @DF-RKS Final Energy:  -381.46167918017289
    Total Energy =                       -381.4616791801728937
    Molecular point group: c1
  Basis Set: 6-31G*
    Blend: 6-31G*
  Basis Set: (6-31G* AUX)
    Blend: CC-PVDZ-JKFIT
   => B3LYP Composite Functional <=
  Basis Set: 6-31G*
    Blend: 6-31G*
   => B3LYP Composite Functional <=
  Basis Set: (6-31G* AUX)
    Blend: CC-PVDZ-JKFIT
  @DF-RKS Final Energy:  -381.46562578511970
    Total Energy =                       -381.4656257851196983
  Basis Set: 6-31G*
    Blend: 6-31G*
  Basis Set: (6-31G* AUX)
  @DF-RKS Final Energy:  -381.46667935407908
    Total Energy =                       -381.4666793540790763
  @DF-RKS Final Energy:  -381.46747922032745
    Total Energy =                       -381.4674792203275047
  @DF-RKS Final Energy:  -381.46750452543182
    Total Energy =                       -381.4675045254318206
   => B3LYP Composite Functional <=
  Basis Set: (6-31G* AUX)
    Blend: CC-PVDZ-JKFIT
  @DF-RKS Final Energy:  -381.46750749272974
    Total Energy =                       -381.4675074927296805
  Basis Set: 6-31G*
    Blend: 6-31G*
  Basis Set: (6-31G* AUX)
    Blend: CC-PVDZ-JKFIT
   => B3LYP Composite Functional <=
  Charge       = 1
  Multiplicity = 1
  Basis Set: 6-31G*
    Blend: 6-31G*
   => B3LYP Composite Functional <=
  Basis Set: (6-31G* AUX)
    Blend: CC-PVDZ-JKFIT

    Orbital Energies (a.u.)
    -----------------------

    Doubly Occupied:

       1A    -14.571781     2A    -14.563836     3A    -10.496767
       4A    -10.372382     5A    -10.357067     6A    -10.355282
       7A    -10.344542     8A    -10.340894     9A    -10.340105
      10A     -1.183317    11A     -1.090900    12A     -1.014401
      13A     -0.927294    14A     -0.902299    15A     -0.843904
      16A     -0.782690    17A     -0.772684    18A     -0.738361
      19A     -0.731084    20A     -0.692614    21A     -0.668766
      22A     -0.625473    23A     -0.611383    24A     -0.584781
      25A     -0.579335    26A     -0.570679    27A     -0.517937
      28A     -0.505787    29A     -0.497891    30A     -0.476655
      31A     -0.412656    32A     -0.405881

  @DF-RKS Final Energy:  -381.46750756856909

   => Energetics <=

    Nuclear Repulsion Energy =            416.8112033596449919
    One-Electron Energy =               -1328.8529352818475218
    Two-Electron Energy =                 574.9887377079735415
    DFT Exchange-Correlation Energy =     -44.4026105543401428
    Empirical Dispersion Energy =          -0.0119028000000000
    PCM Polarization Energy =               0.0000000000000000
    EFP Energy =                            0.0000000000000000
    Total Energy =                       -381.4675075685690899
    Molecular point group: c1
  Basis Set: 6-31G*
    Blend: 6-31G*
  Basis Set: (6-31G* AUX)
    Blend: CC-PVDZ-JKFIT
   => B3LYP Composite Functional <=

  -Total Gradient:
     Atom            X                  Y                   Z
    ------   -----------------  -----------------  -----------------
       1        0.004329952222    -0.002656926362    -0.000066558277
       2        0.000021100362     0.000010759287     0.000044132231
       3        0.000001330620     0.000013317839    -0.000033095516
       4        0.000006267873    -0.000019420760    -0.000004645916
       5       -0.000008984555    -0.000001401708    -0.000005309061
       6        0.000002942924    -0.000006759146     0.000017919460
       7       -0.007961133171     0.005734988667    -0.001424932424
       8       -0.000018812431    -0.000002045493    -0.000000253975
       9       -0.000004025379    -0.000004283957    -0.000001290848
      10       -0.000000543193    -0.000000791420    -0.000001518233
      11        0.000000591391     0.000002615637     0.000002915355
      12       -0.000010523272     0.000009207064    -0.000005175444
      13        0.007089779843    -0.008059303519     0.005759740477
      14        0.000021838418     0.000081661352    -0.000064969066
      15       -0.000023528556    -0.000001431110     0.000010550425
      16        0.000010713297    -0.000016728821    -0.000016158297
      17       -0.003489070345     0.004884766167    -0.004139252107
      18        0.000023470109     0.000018170002    -0.000087573922

  **** Optimization is complete! (in 7 steps) ****
    Final optimized geometry and variables:
    Molecular point group: c1

    Geometry (in Angstrom), charge = 1, multiplicity = 1:

    C           -0.010670155253     0.003299124246    -0.172649344079
    C            0.045759781561     1.224497920710     0.528739067463
    C            0.050933174841     1.221270227425     1.918789196697
    C            0.001480796581     0.008576582755     2.614946396017
    C           -0.058686414131    -1.205281910989     1.922913319580
    C           -0.070489708657    -1.215028163993     0.532218173741
    C           -0.005390615375    -0.007001846827    -1.633831952186
    H            0.036263039675     2.169503172411    -0.007527173805
    H            0.080773467545     2.160938922047     2.460628407312
    H            0.008467550687     0.010287859880     3.700654453141
    H           -0.085850491017    -2.143203711266     2.467992218721
    H           -0.078032752184    -2.157372549172    -0.006375026681
    N           -0.611333692562    -1.005508288770    -2.294589332485
    N            0.698867496410     0.898297336591    -2.305395956349
    H            0.667067044147     0.977227324512    -3.315366327586
    H            1.356663047855     1.494590694695    -1.818971141757
    H           -1.496920887207    -1.348457910473    -1.939745090705
    H           -0.516586682917    -1.073063783780    -3.303170887039

  Mulliken Charges: (a.u.)
   Center  Symbol    Alpha    Beta     Spin     Total
       1     C     2.95716  2.95716  0.00000  0.08568
       2     C     3.08377  3.08377  0.00000 -0.16753
       3     C     3.06264  3.06264  0.00000 -0.12527
       4     C     3.05084  3.05084  0.00000 -0.10167
       5     C     3.06263  3.06263  0.00000 -0.12525
       6     C     3.07722  3.07722  0.00000 -0.15445
       7     C     2.73455  2.73455  0.00000  0.53090
       8     H     0.41475  0.41475  0.00000  0.17049
       9     H     0.40538  0.40538  0.00000  0.18924
      10     H     0.40348  0.40348  0.00000  0.19304
      11     H     0.40512  0.40512  0.00000  0.18976
      12     H     0.40980  0.40980  0.00000  0.18040
      13     N     3.85979  3.85979  0.00000 -0.71957
      14     N     3.85708  3.85708  0.00000 -0.71417
      15     H     0.30541  0.30541  0.00000  0.38917
      16     H     0.29941  0.29941  0.00000  0.40119
      17     H     0.30131  0.30131  0.00000  0.39738
      18     H     0.30967  0.30967  0.00000  0.38065

   Total alpha = 32.00000, Total beta = 32.00000, Total charge =  1.00000

*** Psi4 exiting successfully. Buy a developer a beer!
