                               Psi4 1.1 release

  ==> Input File <==

--------------------------------------------------------------------------
set {
	reference rks
	basis 6-31G*
}

set_num_threads( 8 )
memory 2 gb

molecule MOL {
1 1

C	 0.537966	 -0.320330	 -0.331977
C	 0.588261	 0.673109	 0.663821
C	 1.095272	 0.362034	 1.921554
C	 1.560439	 -0.929158	 2.189266
C	 1.516079	 -1.916953	 1.200571
C	 1.002601	 -1.620383	 -0.058043
C	 -0.000000	 -0.000000	 -1.658508
H	 0.188758	 1.665347	 0.473823
H	 1.118514	 1.122261	 2.695536
H	 1.958595	 -1.166238	 3.171049
H	 1.890712	 -2.914093	 1.407680
H	 1.009676	 -2.378950	 -0.835709
N	 -0.712589	 -0.905950	 -2.322235
N	 0.225754	 1.195835	 -2.195236
H	 -0.199183	 1.498148	 -3.064030
H	 0.897174	 1.821000	 -1.769035
H	 -1.377189	 -1.485970	 -1.827091
H	 -0.673431	 -1.006470	 -3.329771

	symmetry c1
}
set optking { dynamic_level = 1 }
set optking {
	frozen_dihedral = ("
		1 7 13 17
	")
}

ee,wfn = optimize('b3lyp-d3', return_wfn=True)
oeprop( wfn, 'DIPOLE', 'QUADRUPOLE', 'MULLIKEN_CHARGES')
f=open( 'psi4out.xyz', 'w' )
f.write( "18  " )
f.write( str(ee) + "\n" )
f.write( MOL.save_string_xyz() )
f.close()
--------------------------------------------------------------------------

    Molecular point group: c1
  Charge       = 1
  Multiplicity = 1
  Basis Set: 6-31G*
    Blend: 6-31G*
   => B3LYP Composite Functional <=
  Basis Set: (6-31G* AUX)
    Blend: CC-PVDZ-JKFIT
  @DF-RKS Final Energy:  -381.46167919462664
    Total Energy =                       -381.4616791946266972
    Molecular point group: c1
  Basis Set: 6-31G*
    Blend: 6-31G*
  Basis Set: (6-31G* AUX)
    Blend: CC-PVDZ-JKFIT
   => B3LYP Composite Functional <=
  Basis Set: 6-31G*
    Blend: 6-31G*
   => B3LYP Composite Functional <=
  Basis Set: (6-31G* AUX)
    Blend: CC-PVDZ-JKFIT
  @DF-RKS Final Energy:  -381.46562578087372
    Total Energy =                       -381.4656257808737223
  Basis Set: 6-31G*
    Blend: 6-31G*
  Basis Set: (6-31G* AUX)
  @DF-RKS Final Energy:  -381.46667934666243
    Total Energy =                       -381.4666793466623744
  @DF-RKS Final Energy:  -381.46747921561013
    Total Energy =                       -381.4674792156101830
  @DF-RKS Final Energy:  -381.46750452052595
    Total Energy =                       -381.4675045205258925
   => B3LYP Composite Functional <=
  Basis Set: (6-31G* AUX)
    Blend: CC-PVDZ-JKFIT
  @DF-RKS Final Energy:  -381.46750748649197
    Total Energy =                       -381.4675074864919679
  Basis Set: 6-31G*
    Blend: 6-31G*
  Basis Set: (6-31G* AUX)
    Blend: CC-PVDZ-JKFIT
   => B3LYP Composite Functional <=
  Charge       = 1
  Multiplicity = 1
  Basis Set: 6-31G*
    Blend: 6-31G*
   => B3LYP Composite Functional <=
  Basis Set: (6-31G* AUX)
    Blend: CC-PVDZ-JKFIT

    Orbital Energies (a.u.)
    -----------------------

    Doubly Occupied:

       1A    -14.571780     2A    -14.563836     3A    -10.496767
       4A    -10.372382     5A    -10.357068     6A    -10.355282
       7A    -10.344542     8A    -10.340894     9A    -10.340105
      10A     -1.183317    11A     -1.090900    12A     -1.014401
      13A     -0.927294    14A     -0.902299    15A     -0.843904
      16A     -0.782690    17A     -0.772684    18A     -0.738361
      19A     -0.731084    20A     -0.692614    21A     -0.668766
      22A     -0.625473    23A     -0.611383    24A     -0.584781
      25A     -0.579335    26A     -0.570679    27A     -0.517937
      28A     -0.505787    29A     -0.497891    30A     -0.476655
      31A     -0.412656    32A     -0.405881

  @DF-RKS Final Energy:  -381.46750756242557

   => Energetics <=

    Nuclear Repulsion Energy =            416.8111938744272038
    One-Electron Energy =               -1328.8529163663517920
    Two-Electron Energy =                 574.9887280458256100
    DFT Exchange-Correlation Energy =     -44.4026103163265446
    Empirical Dispersion Energy =          -0.0119028000000000
    PCM Polarization Energy =               0.0000000000000000
    EFP Energy =                            0.0000000000000000
    Total Energy =                       -381.4675075624255101
    Molecular point group: c1
  Basis Set: 6-31G*
    Blend: 6-31G*
  Basis Set: (6-31G* AUX)
    Blend: CC-PVDZ-JKFIT
   => B3LYP Composite Functional <=

  -Total Gradient:
     Atom            X                  Y                   Z
    ------   -----------------  -----------------  -----------------
       1        0.004436135267    -0.001203967055    -0.002164049804
       2        0.000033221199     0.000006557896     0.000036842254
       3       -0.000013550300     0.000020099842    -0.000026179487
       4        0.000007875173    -0.000015258709    -0.000011849217
       5       -0.000009772550    -0.000002878717    -0.000002439325
       6        0.000010551956    -0.000009423460     0.000013150306
       7       -0.008891848956     0.003343792908     0.002838065822
       8       -0.000016800403    -0.000007276407     0.000004744500
       9       -0.000003283378    -0.000004829474    -0.000001210240
      10       -0.000000869799    -0.000000586611    -0.000001398702
      11        0.000001133676     0.000001857700     0.000003283224
      12       -0.000013293307     0.000006605050     0.000001206220
      13        0.010147877488    -0.006709071953     0.000633643973
      14       -0.000020065435     0.000096603814    -0.000040357399
      15       -0.000017253213    -0.000010463282     0.000016133346
      16        0.000007141460    -0.000008926626    -0.000022911339
      17       -0.005653693142     0.004442484412    -0.001211588346
      18       -0.000014346852     0.000042877212    -0.000080651914

  **** Optimization is complete! (in 7 steps) ****
    Final optimized geometry and variables:
    Molecular point group: c1

    Geometry (in Angstrom), charge = 1, multiplicity = 1:

    C           -0.087224298681     0.048441442623    -0.165250627096
    C           -0.019565118154     1.049453594501     0.824624909612
    C            0.495568130909     0.744393055173     2.079157751759
    C            0.945117199904    -0.551861317538     2.353633108538
    C            0.876043486065    -1.549162224775     1.375572662732
    C            0.357205017791    -1.257972877619     0.118479502253
    C           -0.616273015192     0.359463847449    -1.491357840970
    H           -0.411269573280     2.044275350858     0.630707732500
    H            0.536069422973     1.510226056789     2.846827587065
    H            1.349309088855    -0.785332587807     3.333905406548
    H            1.236251891210    -2.549948643870     1.590567532246
    H            0.338693992572    -2.020536533578    -0.653729436780
    N           -1.212555878216    -0.602419350380    -2.212474849035
    N           -0.400841157850     1.553986341191    -2.032883148006
    H           -0.815723351619     1.838850729589    -2.912659493108
    H            0.257984755694     2.194243165550    -1.607572071972
    H           -1.819923760627    -1.256458140907    -1.731714035506
    H           -1.482980499962    -0.417612699999    -3.173461034665

  Mulliken Charges: (a.u.)
   Center  Symbol    Alpha    Beta     Spin     Total
       1     C     2.95716  2.95716  0.00000  0.08568
       2     C     3.08377  3.08377  0.00000 -0.16753
       3     C     3.06264  3.06264  0.00000 -0.12527
       4     C     3.05084  3.05084  0.00000 -0.10167
       5     C     3.06263  3.06263  0.00000 -0.12525
       6     C     3.07722  3.07722  0.00000 -0.15445
       7     C     2.73455  2.73455  0.00000  0.53090
       8     H     0.41475  0.41475  0.00000  0.17049
       9     H     0.40538  0.40538  0.00000  0.18924
      10     H     0.40348  0.40348  0.00000  0.19304
      11     H     0.40512  0.40512  0.00000  0.18976
      12     H     0.40980  0.40980  0.00000  0.18040
      13     N     3.85979  3.85979  0.00000 -0.71957
      14     N     3.85708  3.85708  0.00000 -0.71417
      15     H     0.30541  0.30541  0.00000  0.38917
      16     H     0.29941  0.29941  0.00000  0.40119
      17     H     0.30131  0.30131  0.00000  0.39738
      18     H     0.30967  0.30967  0.00000  0.38065

   Total alpha = 32.00000, Total beta = 32.00000, Total charge =  1.00000

*** Psi4 exiting successfully. Buy a developer a beer!
