                               Psi4 1.1 release

  ==> Input File <==

--------------------------------------------------------------------------
set_num_threads( 8 )
memory 2.000000 gb

set { reference rks }
set { basis cc-pVDZ }

molecule MOL {
    0 1
    noreorient
    nocom
    symmetry c1
    O    1.141000   0.017000   0.083000
    C    2.558000   0.086000  -0.005000
    C    3.192000  -0.789000   1.067000
    O    4.610000  -0.719000   0.979000
    H    0.789000   0.590000  -0.620000
    H    2.874000   1.128000   0.115000
    H    2.871000  -0.243000  -1.001000
    H    2.876000  -1.830000   0.947000
    H    2.879000  -0.459000   2.064000
    H    4.956868  -1.010443   1.840179
}

set optking { frozen_dihedral = (" 1 2 3 4, 2 3 4 10 ") }

energy, wfn = energy('B3LYP-D3', return_wfn=True)

import os
os.chdir(os.environ['HTMD_PSI4_WORKDIR'])

oeprop(wfn, 'DIPOLE', 'QUADRUPOLE', 'MULLIKEN_CHARGES')

with open('psi4out.xyz', 'w') as f:
    f.write('10 ' )
    f.write('%.12f\n' % energy)
    f.write(MOL.save_string_xyz())
--------------------------------------------------------------------------

    Molecular point group: c1

    Geometry (in Angstrom), charge = 0, multiplicity = 1:

       Center              X                  Y                   Z               Mass
    ------------   -----------------  -----------------  -----------------  -----------------
           O          1.141000000000     0.017000000000     0.083000000000    15.994914619560
           C          2.558000000000     0.086000000000    -0.005000000000    12.000000000000
           C          3.192000000000    -0.789000000000     1.067000000000    12.000000000000
           O          4.610000000000    -0.719000000000     0.979000000000    15.994914619560
           H          0.789000000000     0.590000000000    -0.620000000000     1.007825032070
           H          2.874000000000     1.128000000000     0.115000000000     1.007825032070
           H          2.871000000000    -0.243000000000    -1.001000000000     1.007825032070
           H          2.876000000000    -1.830000000000     0.947000000000     1.007825032070
           H          2.879000000000    -0.459000000000     2.064000000000     1.007825032070
           H          4.956868000000    -1.010443000000     1.840179000000     1.007825032070

  Charge       = 0
  Multiplicity = 1
  Basis Set: CC-PVDZ
    Blend: CC-PVDZ
   => B3LYP Composite Functional <=
  Basis Set: (CC-PVDZ AUX)
    Blend: CC-PVDZ-JKFIT

    Orbital Energies (a.u.)
    -----------------------

    Doubly Occupied:

       1A    -19.131855     2A    -19.131414     3A    -10.226373
       4A    -10.225756     5A     -1.018864     6A     -1.008587
       7A     -0.732112     8A     -0.603927     9A     -0.526012
      10A     -0.482991    11A     -0.470346    12A     -0.413304
      13A     -0.395214    14A     -0.348758    15A     -0.319589
      16A     -0.264566    17A     -0.263501

  @DF-RKS Final Energy:  -230.25711818114027

   => Energetics <=

    Nuclear Repulsion Energy =            129.4555688459377052
    One-Electron Energy =                -570.6662595326545215
    Two-Electron Energy =                 235.4968628716747787
    DFT Exchange-Correlation Energy =     -24.5388795860982469
    Empirical Dispersion Energy =          -0.0044107800000000
    PCM Polarization Energy =               0.0000000000000000
    EFP Energy =                            0.0000000000000000
    Total Energy =                       -230.2571181811402994

  Mulliken Charges: (a.u.)
   Center  Symbol    Alpha    Beta     Spin     Total
       1     O     4.14054  4.14054  0.00000 -0.28107
       2     C     2.93605  2.93605  0.00000  0.12789
       3     C     2.93666  2.93666  0.00000  0.12667
       4     O     4.14059  4.14059  0.00000 -0.28118
       5     H     0.42741  0.42741  0.00000  0.14518
       6     H     0.49931  0.49931  0.00000  0.00137
       7     H     0.49747  0.49747  0.00000  0.00507
       8     H     0.49683  0.49683  0.00000  0.00635
       9     H     0.49808  0.49808  0.00000  0.00385
      10     H     0.42706  0.42706  0.00000  0.14588

   Total alpha = 17.00000, Total beta = 17.00000, Total charge = -0.00000

*** Psi4 exiting successfully. Buy a developer a beer!
