                               Psi4 1.1 release

  ==> Input File <==

--------------------------------------------------------------------------
set_num_threads(1)
set_memory(3145728000)

set { reference rks }
set { basis 6-31G* }

molecule MOL {
    1 1
    noreorient
    nocom
    symmetry c1
    C    0.000000   0.000000  -0.177864
    C    0.036678   1.219374   0.524165
    C    0.031764   1.213119   1.915444
    C   -0.000000  -0.000000   2.610107
    C   -0.031764  -1.213119   1.915444
    C   -0.036677  -1.219374   0.524165
    C    0.000000  -0.000000  -1.644734
    H    0.018170   2.164705  -0.010853
    H    0.042402   2.152895   2.457886
    H   -0.000000  -0.000000   3.695756
    H   -0.042402  -2.152895   2.457886
    H   -0.018170  -2.164705  -0.010853
    N   -0.712590  -0.905950  -2.308460
    N    0.712590   0.905950  -2.308461
    H    0.673432   1.006469  -3.315997
    H    1.377190   1.485970  -1.813317
    H   -0.520928  -1.890856  -2.179969
    H   -1.497951  -0.662281  -2.900575
}

set optking { frozen_dihedral = (" 1 7 13 17 ") }

set optking { dynamic_level = 1
 geom_maxiter = 250
 print_trajectory_xyz_file = True }

energy, wfn = optimize('B3LYP-D3', return_wfn=True)

import os
os.chdir(os.environ['HTMD_PSI4_WORKDIR'])

oeprop(wfn, 'DIPOLE', 'QUADRUPOLE', 'MULLIKEN_CHARGES')

with open('psi4out.xyz', 'w') as f:
    f.write('18 ' )
    f.write('%.12f\n' % energy)
    f.write(MOL.save_string_xyz())
--------------------------------------------------------------------------

    Molecular point group: c1
  Charge       = 1
  Multiplicity = 1
  Basis Set: 6-31G*
    Blend: 6-31G*
   => B3LYP Composite Functional <=
  Basis Set: (6-31G* AUX)
    Blend: CC-PVDZ-JKFIT
  @DF-RKS Final Energy:  -381.43287664904278
    Total Energy =                       -381.4328766490427824
    Molecular point group: c1
  Basis Set: 6-31G*
    Blend: 6-31G*
  Basis Set: (6-31G* AUX)
    Blend: CC-PVDZ-JKFIT
   => B3LYP Composite Functional <=
  Basis Set: 6-31G*
    Blend: 6-31G*
   => B3LYP Composite Functional <=
  Basis Set: (6-31G* AUX)
    Blend: CC-PVDZ-JKFIT
  @DF-RKS Final Energy:  -381.44099141258920
    Total Energy =                       -381.4409914125892556
  Basis Set: 6-31G*
    Blend: 6-31G*
  Basis Set: (6-31G* AUX)
  @DF-RKS Final Energy:  -381.44680150909551
    Total Energy =                       -381.4468015090955646
  @DF-RKS Final Energy:  -381.44923252737698
    Total Energy =                       -381.4492325273770348
  @DF-RKS Final Energy:  -381.45392979643123
    Total Energy =                       -381.4539297964312254
  @DF-RKS Final Energy:  -381.44923252737618
    Total Energy =                       -381.4492325273761821
  @DF-RKS Final Energy:  -381.45444042294804
    Total Energy =                       -381.4544404229479824
  @DF-RKS Final Energy:  -381.45515145035768
    Total Energy =                       -381.4551514503576755
  @DF-RKS Final Energy:  -381.45594407735268
    Total Energy =                       -381.4559440773526831
  @DF-RKS Final Energy:  -381.45081407229117
    Total Energy =                       -381.4508140722911662
  @DF-RKS Final Energy:  -381.45480534027132
    Total Energy =                       -381.4548053402713776
  @DF-RKS Final Energy:  -381.45594407735285
    Total Energy =                       -381.4559440773527967
  @DF-RKS Final Energy:  -381.45606526877754
    Total Energy =                       -381.4560652687774791
  @DF-RKS Final Energy:  -381.45620084190824
    Total Energy =                       -381.4562008419082417
  @DF-RKS Final Energy:  -381.45634423778500
    Total Energy =                       -381.4563442377850038
  @DF-RKS Final Energy:  -381.45654057745242
    Total Energy =                       -381.4565405774523583
  @DF-RKS Final Energy:  -381.45671953530137
    Total Energy =                       -381.4567195353014313
  @DF-RKS Final Energy:  -381.45689969387200
    Total Energy =                       -381.4568996938720602
  @DF-RKS Final Energy:  -381.45709668077171
    Total Energy =                       -381.4570966807716559
  @DF-RKS Final Energy:  -381.45729159985825
    Total Energy =                       -381.4572915998582516
  @DF-RKS Final Energy:  -381.46156185220781
    Total Energy =                       -381.4615618522077511
  @DF-RKS Final Energy:  -381.46157713230411
    Total Energy =                       -381.4615771323041145
  @DF-RKS Final Energy:  -381.46161280556959
    Total Energy =                       -381.4616128055695867
  @DF-RKS Final Energy:  -381.46161296102582
    Total Energy =                       -381.4616129610258213
  @DF-RKS Final Energy:  -381.46125372730899
    Total Energy =                       -381.4612537273089288
  @DF-RKS Final Energy:  -381.46152927876932
    Total Energy =                       -381.4615292787693193
  @DF-RKS Final Energy:  -381.46161296102537
    Total Energy =                       -381.4616129610253097
  @DF-RKS Final Energy:  -381.46161173206912
    Total Energy =                       -381.4616117320691160
  @DF-RKS Final Energy:  -381.46161390036553
    Total Energy =                       -381.4616139003654780
  @DF-RKS Final Energy:  -381.46161239334992
    Total Energy =                       -381.4616123933499239
  @DF-RKS Final Energy:  -381.46161423995386
    Total Energy =                       -381.4616142399538035
  @DF-RKS Final Energy:  -381.46161212257368
    Total Energy =                       -381.4616121225736833
  @DF-RKS Final Energy:  -381.46161434723086
    Total Energy =                       -381.4616143472308636
  @DF-RKS Final Energy:  -381.46161161704885
    Total Energy =                       -381.4616116170487885
  @DF-RKS Final Energy:  -381.46161442733552
    Total Energy =                       -381.4616144273354621
  @DF-RKS Final Energy:  -381.46161017480011
    Total Energy =                       -381.4616101748001711
  @DF-RKS Final Energy:  -381.46161427589499
    Total Energy =                       -381.4616142758950446
  @DF-RKS Final Energy:  -381.46161442733563
    Total Energy =                       -381.4616144273355758
   => B3LYP Composite Functional <=
  Basis Set: (6-31G* AUX)
    Blend: CC-PVDZ-JKFIT
  @DF-RKS Final Energy:  -381.46161427639851
    Total Energy =                       -381.4616142763985067
  Basis Set: 6-31G*
    Blend: 6-31G*
  Basis Set: (6-31G* AUX)
    Blend: CC-PVDZ-JKFIT
   => B3LYP Composite Functional <=
  Charge       = 1
  Multiplicity = 1
  Basis Set: 6-31G*
    Blend: 6-31G*
   => B3LYP Composite Functional <=
  Basis Set: (6-31G* AUX)
    Blend: CC-PVDZ-JKFIT

    Orbital Energies (a.u.)
    -----------------------

    Doubly Occupied:

       1A    -14.575688     2A    -14.558022     3A    -10.496612
       4A    -10.372313     5A    -10.358354     6A    -10.355243
       7A    -10.346427     8A    -10.341836     9A    -10.340295
      10A     -1.182496    11A     -1.088767    12A     -1.014941
      13A     -0.928214    14A     -0.902901    15A     -0.842913
      16A     -0.779753    17A     -0.771968    18A     -0.736898
      19A     -0.727657    20A     -0.694472    21A     -0.668480
      22A     -0.625849    23A     -0.607696    24A     -0.582312
      25A     -0.580020    26A     -0.567718    27A     -0.517604
      28A     -0.506515    29A     -0.498256    30A     -0.478661
      31A     -0.413799    32A     -0.406462

  @DF-RKS Final Energy:  -381.46161484265076

   => Energetics <=

    Nuclear Repulsion Energy =            416.5946169106015304
    One-Electron Energy =               -1328.4316855881352240
    Two-Electron Energy =                 574.7854421321355858
    DFT Exchange-Correlation Energy =     -44.3981947072525713
    Empirical Dispersion Energy =          -0.0117935900000000
    PCM Polarization Energy =               0.0000000000000000
    EFP Energy =                            0.0000000000000000
    Total Energy =                       -381.4616148426507038
    Molecular point group: c1
  Basis Set: 6-31G*
    Blend: 6-31G*
  Basis Set: (6-31G* AUX)
    Blend: CC-PVDZ-JKFIT
   => B3LYP Composite Functional <=

  -Total Gradient:
     Atom            X                  Y                   Z
    ------   -----------------  -----------------  -----------------
       1       -0.008892685824     0.000377138875     0.000119846370
       2        0.000046229209    -0.000015957547    -0.000020585648
       3        0.000024099217     0.000004248042    -0.000002608685
       4       -0.000015775735     0.000001315901    -0.000045401410
       5       -0.000058683316     0.000017474581     0.000022703403
       6       -0.000098430067     0.000014396494    -0.000034904730
       7        0.015866027339     0.001115131220    -0.003343474650
       8       -0.000011071606     0.000068269960    -0.000009379316
       9        0.000017343926     0.000015253364    -0.000021430332
      10        0.000008730687     0.000001947884    -0.000012777779
      11        0.000016876617    -0.000043129301    -0.000021348915
      12        0.000035746144    -0.000039248036    -0.000006844817
      13       -0.013199396806    -0.006582180298     0.012750881253
      14       -0.000020338650     0.000051983567    -0.000001126640
      15       -0.000043920499    -0.000059105276     0.000051197377
      16        0.000002361416    -0.000029380789     0.000008163438
      17        0.006293474567     0.005036966490    -0.009440621998
      18        0.000019203010     0.000061996955    -0.000007012541

  **** Optimization is complete! (in 2 steps) ****
    Final optimized geometry and variables:
    Molecular point group: c1

    Geometry (in Angstrom), charge = 1, multiplicity = 1:

    C            0.032738150489    -0.010973922133    -0.152412816712
    C            0.574191102885     1.082538356915     0.556763424324
    C            0.561431747744     1.078123981440     1.945552179729
    C            0.016374910358    -0.011800669167     2.635045727929
    C           -0.511415540527    -1.103197325069     1.937426797210
    C           -0.500877909489    -1.112792789287     0.547146476249
    C            0.015457662932    -0.012498344474    -1.608708503397
    H            1.043885063584     1.906754664369     0.026387066876
    H            0.986905899557     1.912852093862     2.492936809437
    H            0.006672530186    -0.010622481965     3.720783519131
    H           -0.938483527743    -1.941459579564     2.478242883679
    H           -0.939257356992    -1.940670740555     0.000110168898
    N           -0.038630296958    -1.191015022066    -2.277558432388
    N           -0.148435114460     1.124420316042    -2.275026673230
    H           -0.093561746706     1.175542740213    -3.286027413686
    H           -0.393173572970     1.976900451245    -1.785369357760
    H            0.722276726417    -1.846609708672    -2.120978720555
    H           -0.272136771056    -1.141234242755    -3.266554668360

  Mulliken Charges: (a.u.)
   Center  Symbol    Alpha    Beta     Spin     Total
       1     C     2.95340  2.95340  0.00000  0.09320
       2     C     3.08451  3.08451  0.00000 -0.16902
       3     C     3.06273  3.06273  0.00000 -0.12547
       4     C     3.05018  3.05018  0.00000 -0.10036
       5     C     3.06263  3.06263  0.00000 -0.12526
       6     C     3.07342  3.07342  0.00000 -0.14685
       7     C     2.74933  2.74933  0.00000  0.50135
       8     H     0.41521  0.41521  0.00000  0.16957
       9     H     0.40515  0.40515  0.00000  0.18970
      10     H     0.40297  0.40297  0.00000  0.19407
      11     H     0.40471  0.40471  0.00000  0.19057
      12     H     0.40617  0.40617  0.00000  0.18766
      13     N     3.85775  3.85775  0.00000 -0.71551
      14     N     3.85164  3.85164  0.00000 -0.70328
      15     H     0.30499  0.30499  0.00000  0.39003
      16     H     0.29925  0.29925  0.00000  0.40150
      17     H     0.30201  0.30201  0.00000  0.39598
      18     H     0.31395  0.31395  0.00000  0.37211

   Total alpha = 32.00000, Total beta = 32.00000, Total charge =  1.00000

*** Psi4 exiting successfully. Buy a developer a beer!
