                               Psi4 1.1 release

  ==> Input File <==

--------------------------------------------------------------------------
set_num_threads(1)
set_memory(4203741184)

set { reference rks }
set { basis cc-pVDZ }

molecule MOL {
    0 1
    noreorient
    nocom
    symmetry c1
    O    1.050400   0.042900  -0.048100
    C    2.474100   0.047400  -0.029000
    C    3.002600  -1.068900  -0.932000
    N    4.462700  -1.072400  -1.006800
    H    0.771558  -0.872947   0.123605
    H    2.809900  -0.097900   1.003200
    H    2.817400   1.026800  -0.378600
    H    2.581000  -0.963300  -1.938400
    H    2.653800  -2.036400  -0.553400
    H    4.779000  -0.221000  -1.470000
    H    4.758600  -1.842500  -1.606500
}

set optking { frozen_dihedral = (" 3 2 1 5 ") }

energy, wfn = energy('B3LYP-D3', return_wfn=True)

import os
os.chdir(os.environ['HTMD_PSI4_WORKDIR'])

oeprop(wfn, 'DIPOLE', 'QUADRUPOLE', 'MULLIKEN_CHARGES')

with open('psi4out.xyz', 'w') as f:
    f.write('11 ' )
    f.write('%.12f\n' % energy)
    f.write(MOL.save_string_xyz())
--------------------------------------------------------------------------

    Molecular point group: c1

    Geometry (in Angstrom), charge = 0, multiplicity = 1:

       Center              X                  Y                   Z               Mass
    ------------   -----------------  -----------------  -----------------  -----------------
           O          1.050400000000     0.042900000000    -0.048100000000    15.994914619560
           C          2.474100000000     0.047400000000    -0.029000000000    12.000000000000
           C          3.002600000000    -1.068900000000    -0.932000000000    12.000000000000
           N          4.462700000000    -1.072400000000    -1.006800000000    14.003074004780
           H          0.771558000000    -0.872947000000     0.123605000000     1.007825032070
           H          2.809900000000    -0.097900000000     1.003200000000     1.007825032070
           H          2.817400000000     1.026800000000    -0.378600000000     1.007825032070
           H          2.581000000000    -0.963300000000    -1.938400000000     1.007825032070
           H          2.653800000000    -2.036400000000    -0.553400000000     1.007825032070
           H          4.779000000000    -0.221000000000    -1.470000000000     1.007825032070
           H          4.758600000000    -1.842500000000    -1.606500000000     1.007825032070

  Charge       = 0
  Multiplicity = 1
  Basis Set: CC-PVDZ
    Blend: CC-PVDZ
   => B3LYP Composite Functional <=
  Basis Set: (CC-PVDZ AUX)
    Blend: CC-PVDZ-JKFIT

    Orbital Energies (a.u.)
    -----------------------

    Doubly Occupied:

       1A    -19.128653     2A    -14.308077     3A    -10.224572
       4A    -10.206728     5A     -1.011474     6A     -0.880381
       7A     -0.711492     8A     -0.613639     9A     -0.498344
      10A     -0.489571    11A     -0.446391    12A     -0.426853
      13A     -0.397344    14A     -0.372813    15A     -0.321115
      16A     -0.263359    17A     -0.234963

  @DF-RKS Final Energy:  -210.39219060754527

   => Energetics <=

    Nuclear Repulsion Energy =            130.9260154833165473
    One-Electron Energy =                -544.6823187493566820
    Two-Electron Energy =                 226.8559647163307034
    DFT Exchange-Correlation Energy =     -23.4866829378358020
    Empirical Dispersion Energy =          -0.0051691200000000
    PCM Polarization Energy =               0.0000000000000000
    EFP Energy =                            0.0000000000000000
    Total Energy =                       -210.3921906075452739

  Mulliken Charges: (a.u.)
   Center  Symbol    Alpha    Beta     Spin     Total
       1     O     4.13913  4.13913  0.00000 -0.27827
       2     C     2.91779  2.91779  0.00000  0.16442
       3     C     3.00089  3.00089  0.00000 -0.00178
       4     N     3.59219  3.59219  0.00000 -0.18438
       5     H     0.43140  0.43140  0.00000  0.13720
       6     H     0.49703  0.49703  0.00000  0.00595
       7     H     0.49294  0.49294  0.00000  0.01411
       8     H     0.50142  0.50142  0.00000 -0.00283
       9     H     0.49879  0.49879  0.00000  0.00243
      10     H     0.46421  0.46421  0.00000  0.07159
      11     H     0.46422  0.46422  0.00000  0.07156

   Total alpha = 17.00000, Total beta = 17.00000, Total charge = -0.00000

*** Psi4 exiting successfully. Buy a developer a beer!
