                               Psi4 1.1 release

  ==> Input File <==

--------------------------------------------------------------------------
set_num_threads( 8 )
memory 2.000000 gb

set { reference rks }
set { basis cc-pVDZ }

molecule MOL {
    0 1
    noreorient
    nocom
    symmetry c1
    O    1.141000   0.017000   0.083000
    C    2.558000   0.086000  -0.005000
    C    3.192000  -0.789000   1.067000
    O    4.591221  -0.904642   0.838579
    H    0.789000   0.590000  -0.620000
    H    2.874000   1.128000   0.115000
    H    2.871000  -0.243000  -1.001000
    H    2.743582  -1.787404   1.060083
    H    3.026484  -0.356699   2.060277
    H    4.943016  -1.470460   1.547787
}

set optking { frozen_dihedral = (" 1 2 3 4, 2 3 4 10 ") }

energy, wfn = energy('B3LYP-D3', return_wfn=True)

import os
os.chdir(os.environ['HTMD_PSI4_WORKDIR'])

oeprop(wfn, 'DIPOLE', 'QUADRUPOLE', 'MULLIKEN_CHARGES')

with open('psi4out.xyz', 'w') as f:
    f.write('10 ' )
    f.write('%.12f\n' % energy)
    f.write(MOL.save_string_xyz())
--------------------------------------------------------------------------

    Molecular point group: c1

    Geometry (in Angstrom), charge = 0, multiplicity = 1:

       Center              X                  Y                   Z               Mass
    ------------   -----------------  -----------------  -----------------  -----------------
           O          1.141000000000     0.017000000000     0.083000000000    15.994914619560
           C          2.558000000000     0.086000000000    -0.005000000000    12.000000000000
           C          3.192000000000    -0.789000000000     1.067000000000    12.000000000000
           O          4.591221000000    -0.904642000000     0.838579000000    15.994914619560
           H          0.789000000000     0.590000000000    -0.620000000000     1.007825032070
           H          2.874000000000     1.128000000000     0.115000000000     1.007825032070
           H          2.871000000000    -0.243000000000    -1.001000000000     1.007825032070
           H          2.743582000000    -1.787404000000     1.060083000000     1.007825032070
           H          3.026484000000    -0.356699000000     2.060277000000     1.007825032070
           H          4.943016000000    -1.470460000000     1.547787000000     1.007825032070

  Charge       = 0
  Multiplicity = 1
  Basis Set: CC-PVDZ
    Blend: CC-PVDZ
   => B3LYP Composite Functional <=
  Basis Set: (CC-PVDZ AUX)
    Blend: CC-PVDZ-JKFIT

    Orbital Energies (a.u.)
    -----------------------

    Doubly Occupied:

       1A    -19.131589     2A    -19.131544     3A    -10.226289
       4A    -10.226094     5A     -1.018805     6A     -1.008489
       7A     -0.732359     8A     -0.603627     9A     -0.525847
      10A     -0.482820    11A     -0.470860    12A     -0.412213
      13A     -0.395444    14A     -0.350131    15A     -0.319318
      16A     -0.264180    17A     -0.263129

  @DF-RKS Final Energy:  -230.25704740076395

   => Energetics <=

    Nuclear Repulsion Energy =            129.4612103944552928
    One-Electron Energy =                -570.6782194940558384
    Two-Electron Energy =                 235.5033270036369117
    DFT Exchange-Correlation Energy =     -24.5389661948003273
    Empirical Dispersion Energy =          -0.0043991100000000
    PCM Polarization Energy =               0.0000000000000000
    EFP Energy =                            0.0000000000000000
    Total Energy =                       -230.2570474007639802

  Mulliken Charges: (a.u.)
   Center  Symbol    Alpha    Beta     Spin     Total
       1     O     4.14044  4.14044  0.00000 -0.28089
       2     C     2.93614  2.93614  0.00000  0.12773
       3     C     2.93627  2.93627  0.00000  0.12746
       4     O     4.14067  4.14067  0.00000 -0.28133
       5     H     0.42744  0.42744  0.00000  0.14512
       6     H     0.49837  0.49837  0.00000  0.00326
       7     H     0.49756  0.49756  0.00000  0.00488
       8     H     0.49744  0.49744  0.00000  0.00511
       9     H     0.49828  0.49828  0.00000  0.00344
      10     H     0.42739  0.42739  0.00000  0.14523

   Total alpha = 17.00000, Total beta = 17.00000, Total charge = -0.00000

*** Psi4 exiting successfully. Buy a developer a beer!
