                               Psi4 1.1 release

  ==> Input File <==

--------------------------------------------------------------------------
set {
	reference rks
	basis 6-31G*
}

set_num_threads( 8 )
memory 2 gb

molecule MOL {
1 1

C	 -0.000000	 -0.000000	 -0.191639
C	 0.909246	 0.813320	 0.510391
C	 0.901328	 0.812574	 1.901670
C	 -0.000000	 0.000000	 2.596333
C	 -0.901328	 -0.812574	 1.901670
C	 -0.909247	 -0.813320	 0.510391
C	 -0.000000	 -0.000000	 -1.658508
H	 1.581814	 1.477885	 -0.024627
H	 1.589943	 1.452183	 2.444112
H	 -0.000000	 0.000000	 3.681982
H	 -1.589943	 -1.452184	 2.444112
H	 -1.581814	 -1.477885	 -0.024627
N	 -0.712589	 -0.905950	 -2.322235
N	 0.712590	 0.905950	 -2.322235
H	 0.673432	 1.006470	 -3.329771
H	 1.377190	 1.485970	 -1.827091
H	 -1.377189	 -1.485970	 -1.827091
H	 -0.673431	 -1.006470	 -3.329771

	symmetry c1
}
set optking { dynamic_level = 1 }
set optking {
	frozen_dihedral = ("
		2 1 7 13
	")
}

ee,wfn = optimize('b3lyp-d3', return_wfn=True)
oeprop( wfn, 'DIPOLE', 'QUADRUPOLE', 'MULLIKEN_CHARGES')
f=open( 'psi4out.xyz', 'w' )
f.write( "18  " )
f.write( str(ee) + "\n" )
f.write( MOL.save_string_xyz() )
f.close()
--------------------------------------------------------------------------

    Molecular point group: c1
  Charge       = 1
  Multiplicity = 1
  Basis Set: 6-31G*
    Blend: 6-31G*
   => B3LYP Composite Functional <=
  Basis Set: (6-31G* AUX)
    Blend: CC-PVDZ-JKFIT
  @DF-RKS Final Energy:  -381.46304778871587
    Total Energy =                       -381.4630477887158690
    Molecular point group: c1
  Basis Set: 6-31G*
    Blend: 6-31G*
  Basis Set: (6-31G* AUX)
    Blend: CC-PVDZ-JKFIT
   => B3LYP Composite Functional <=
  Basis Set: 6-31G*
    Blend: 6-31G*
   => B3LYP Composite Functional <=
  Basis Set: (6-31G* AUX)
    Blend: CC-PVDZ-JKFIT
  @DF-RKS Final Energy:  -381.46517449527471
    Total Energy =                       -381.4651744952747094
  Basis Set: 6-31G*
    Blend: 6-31G*
  Basis Set: (6-31G* AUX)
  @DF-RKS Final Energy:  -381.46623529686860
    Total Energy =                       -381.4662352968685468
  @DF-RKS Final Energy:  -381.46674977818378
    Total Energy =                       -381.4667497781837824
  @DF-RKS Final Energy:  -381.46739016231390
    Total Energy =                       -381.4673901623139045
  @DF-RKS Final Energy:  -381.46750591323553
    Total Energy =                       -381.4675059132355273
  @DF-RKS Final Energy:  -381.46752080179698
    Total Energy =                       -381.4675208017969226
  @DF-RKS Final Energy:  -381.46752558072643
    Total Energy =                       -381.4675255807264307
   => B3LYP Composite Functional <=
  Basis Set: (6-31G* AUX)
    Blend: CC-PVDZ-JKFIT
  @DF-RKS Final Energy:  -381.46752664386321
    Total Energy =                       -381.4675266438632661
  Basis Set: 6-31G*
    Blend: 6-31G*
  Basis Set: (6-31G* AUX)
    Blend: CC-PVDZ-JKFIT
   => B3LYP Composite Functional <=
  Charge       = 1
  Multiplicity = 1
  Basis Set: 6-31G*
    Blend: 6-31G*
   => B3LYP Composite Functional <=
  Basis Set: (6-31G* AUX)
    Blend: CC-PVDZ-JKFIT

    Orbital Energies (a.u.)
    -----------------------

    Doubly Occupied:

       1A    -14.565696     2A    -14.565368     3A    -10.497762
       4A    -10.376779     5A    -10.360035     6A    -10.359947
       7A    -10.346227     8A    -10.342683     9A    -10.342527
      10A     -1.183040    11A     -1.089416    12A     -1.016660
      13A     -0.928533    14A     -0.905241    15A     -0.847496
      16A     -0.786147    17A     -0.776125    18A     -0.737584
      19A     -0.736337    20A     -0.688133    21A     -0.669375
      22A     -0.630688    23A     -0.611334    24A     -0.597559
      25A     -0.581746    26A     -0.576296    27A     -0.518393
      28A     -0.509140    29A     -0.500631    30A     -0.471455
      31A     -0.413451    32A     -0.407817

  @DF-RKS Final Energy:  -381.46752675203413

   => Energetics <=

    Nuclear Repulsion Energy =            416.7455826598164208
    One-Electron Energy =               -1328.5987679687673335
    Two-Electron Energy =                 574.8044744987962531
    DFT Exchange-Correlation Energy =     -44.4072290318793961
    Empirical Dispersion Energy =          -0.0115869100000000
    PCM Polarization Energy =               0.0000000000000000
    EFP Energy =                            0.0000000000000000
    Total Energy =                       -381.4675267520341322
    Molecular point group: c1
  Basis Set: 6-31G*
    Blend: 6-31G*
  Basis Set: (6-31G* AUX)
    Blend: CC-PVDZ-JKFIT
   => B3LYP Composite Functional <=

  -Total Gradient:
     Atom            X                  Y                   Z
    ------   -----------------  -----------------  -----------------
       1        0.003035785475    -0.003888160386    -0.000109222049
       2       -0.003321839901     0.003588339639     0.000104901059
       3        0.000009240197     0.000006047866    -0.000007923843
       4       -0.000001800975    -0.000005749953     0.000007056191
       5       -0.000011903185    -0.000003972501    -0.000001144878
       6       -0.000018319184     0.000021577114    -0.000002033513
       7        0.004462705385    -0.002861517039    -0.000127544397
       8        0.000003620522    -0.000001234522    -0.000010541995
       9       -0.000004531114     0.000002363255     0.000002110110
      10       -0.000001843649     0.000001398433     0.000001347922
      11        0.000003808981    -0.000001617354     0.000003196216
      12        0.000005549653    -0.000007759934     0.000006126156
      13       -0.004149175579     0.003129385192     0.000107666637
      14       -0.000016765432     0.000033397215     0.000021019748
      15        0.000001560519    -0.000004214065     0.000002974794
      16       -0.000003598184    -0.000019399920    -0.000003221886
      17        0.000009802009     0.000011609298    -0.000012671045
      18        0.000001987848    -0.000000464936     0.000011578914

  **** Optimization is complete! (in 10 steps) ****
    Final optimized geometry and variables:
    Molecular point group: c1

    Geometry (in Angstrom), charge = 1, multiplicity = 1:

    C            0.043481606452    -0.045631849981    -0.192623508743
    C            0.947365233724     0.766033660481     0.522223268611
    C            0.915681996704     0.796849563441     1.911312639367
    C           -0.022185156492     0.029033844698     2.607677294071
    C           -0.934684144452    -0.766689264000     1.909645361024
    C           -0.912336010938    -0.797576131337     0.519999831004
    C            0.019958073263    -0.020537286018    -1.660566412205
    H            1.723471775985     1.328320218330     0.011202817640
    H            1.627155079795     1.413089393132     2.451053080955
    H           -0.045038284808     0.054933552421     3.692729204614
    H           -1.675431053876    -1.349295462649     2.447389092508
    H           -1.674161857008    -1.374347643823     0.004793192018
    N           -0.685159280673    -0.920503911588    -2.346439389113
    N            0.644941026413     0.943860283545    -2.334291882245
    H            0.684167565849     0.958914317186    -3.346008226723
    H            1.019574739040     1.751244656491    -1.856902660202
    H           -1.009070547660    -1.768505080788    -1.902746019188
    H           -0.773903082686    -0.880254733400    -3.354406796780

  Mulliken Charges: (a.u.)
   Center  Symbol    Alpha    Beta     Spin     Total
       1     C     2.93442  2.93442  0.00000  0.13116
       2     C     3.08875  3.08875  0.00000 -0.17750
       3     C     3.06167  3.06167  0.00000 -0.12333
       4     C     3.05128  3.05128  0.00000 -0.10256
       5     C     3.06107  3.06107  0.00000 -0.12214
       6     C     3.08491  3.08491  0.00000 -0.16983
       7     C     2.70847  2.70847  0.00000  0.58305
       8     H     0.41808  0.41808  0.00000  0.16384
       9     H     0.40500  0.40500  0.00000  0.19000
      10     H     0.40281  0.40281  0.00000  0.19437
      11     H     0.40497  0.40497  0.00000  0.19006
      12     H     0.41897  0.41897  0.00000  0.16206
      13     N     3.87291  3.87291  0.00000 -0.74583
      14     N     3.87285  3.87285  0.00000 -0.74570
      15     H     0.30596  0.30596  0.00000  0.38808
      16     H     0.30070  0.30070  0.00000  0.39860
      17     H     0.30110  0.30110  0.00000  0.39780
      18     H     0.30607  0.30607  0.00000  0.38786

   Total alpha = 32.00000, Total beta = 32.00000, Total charge =  1.00000

*** Psi4 exiting successfully. Buy a developer a beer!
