                               Psi4 1.1 release

  ==> Input File <==

--------------------------------------------------------------------------
set {
	reference rks
	basis 6-31G*
}

set_num_threads( 8 )
memory 2 gb

molecule MOL {
1 1

C	 -0.000000	 -0.000000	 -0.191639
C	 1.207492	 -0.173730	 0.510391
C	 1.201830	 -0.168145	 1.901670
C	 -0.000000	 0.000000	 2.596333
C	 -1.201831	 0.168145	 1.901670
C	 -1.207491	 0.173731	 0.510391
C	 -0.000000	 -0.000000	 -1.658508
H	 2.148896	 -0.261774	 -0.024627
H	 2.134432	 -0.284522	 2.444112
H	 -0.000000	 0.000000	 3.681982
H	 -2.134433	 0.284521	 2.444112
H	 -2.148896	 0.261774	 -0.024627
N	 -0.712589	 -0.905950	 -2.322235
N	 0.712590	 0.905950	 -2.322235
H	 0.673432	 1.006470	 -3.329771
H	 1.377190	 1.485970	 -1.827091
H	 -1.377189	 -1.485970	 -1.827091
H	 -0.673431	 -1.006470	 -3.329771

	symmetry c1
}
set optking { dynamic_level = 1 }
set optking {
	frozen_dihedral = ("
		2 1 7 13
	")
}

ee,wfn = optimize('b3lyp-d3', return_wfn=True)
oeprop( wfn, 'DIPOLE', 'QUADRUPOLE', 'MULLIKEN_CHARGES')
f=open( 'psi4out.xyz', 'w' )
f.write( "18  " )
f.write( str(ee) + "\n" )
f.write( MOL.save_string_xyz() )
f.close()
--------------------------------------------------------------------------

    Molecular point group: c1
  Charge       = 1
  Multiplicity = 1
  Basis Set: 6-31G*
    Blend: 6-31G*
   => B3LYP Composite Functional <=
  Basis Set: (6-31G* AUX)
    Blend: CC-PVDZ-JKFIT
  @DF-RKS Final Energy:  -381.46389332849691
    Total Energy =                       -381.4638933284969085
    Molecular point group: c1
  Basis Set: 6-31G*
    Blend: 6-31G*
  Basis Set: (6-31G* AUX)
    Blend: CC-PVDZ-JKFIT
   => B3LYP Composite Functional <=
  Basis Set: 6-31G*
    Blend: 6-31G*
   => B3LYP Composite Functional <=
  Basis Set: (6-31G* AUX)
    Blend: CC-PVDZ-JKFIT
  @DF-RKS Final Energy:  -381.46711218185567
    Total Energy =                       -381.4671121818556685
  Basis Set: 6-31G*
    Blend: 6-31G*
  Basis Set: (6-31G* AUX)
  @DF-RKS Final Energy:  -381.46803161603299
    Total Energy =                       -381.4680316160329880
  @DF-RKS Final Energy:  -381.46816164281665
    Total Energy =                       -381.4681616428166535
  @DF-RKS Final Energy:  -381.46817030130910
    Total Energy =                       -381.4681703013091010
   => B3LYP Composite Functional <=
  Basis Set: (6-31G* AUX)
    Blend: CC-PVDZ-JKFIT
  @DF-RKS Final Energy:  -381.46817308597502
    Total Energy =                       -381.4681730859749678
  Basis Set: 6-31G*
    Blend: 6-31G*
  Basis Set: (6-31G* AUX)
    Blend: CC-PVDZ-JKFIT
   => B3LYP Composite Functional <=
  Charge       = 1
  Multiplicity = 1
  Basis Set: 6-31G*
    Blend: 6-31G*
   => B3LYP Composite Functional <=
  Basis Set: (6-31G* AUX)
    Blend: CC-PVDZ-JKFIT

    Orbital Energies (a.u.)
    -----------------------

    Doubly Occupied:

       1A    -14.571924     2A    -14.571815     3A    -10.499430
       4A    -10.370472     5A    -10.352841     6A    -10.352161
       7A    -10.338342     8A    -10.337199     9A    -10.337070
      10A     -1.186780    11A     -1.095710    12A     -1.011653
      13A     -0.924367    14A     -0.898727    15A     -0.844955
      16A     -0.786703    17A     -0.769694    18A     -0.748489
      19A     -0.730009    20A     -0.689633    21A     -0.668236
      22A     -0.621288    23A     -0.620333    24A     -0.581039
      25A     -0.576059    26A     -0.570059    27A     -0.517415
      28A     -0.501064    29A     -0.494909    30A     -0.476005
      31A     -0.408464    32A     -0.402211

  @DF-RKS Final Energy:  -381.46817322999084

   => Energetics <=

    Nuclear Repulsion Energy =            416.7551240258259213
    One-Electron Energy =               -1328.7892720761608416
    Two-Electron Energy =                 574.9829020646257050
    DFT Exchange-Correlation Energy =     -44.4050017642816215
    Empirical Dispersion Energy =          -0.0119254800000000
    PCM Polarization Energy =               0.0000000000000000
    EFP Energy =                            0.0000000000000000
    Total Energy =                       -381.4681732299908390
    Molecular point group: c1
  Basis Set: 6-31G*
    Blend: 6-31G*
  Basis Set: (6-31G* AUX)
    Blend: CC-PVDZ-JKFIT
   => B3LYP Composite Functional <=

  -Total Gradient:
     Atom            X                  Y                   Z
    ------   -----------------  -----------------  -----------------
       1        0.002626295434     0.005050493867    -0.000147216090
       2       -0.000708177504    -0.004312303681     0.000108893316
       3        0.000000582249    -0.000021130557     0.000002043181
       4        0.000001210110    -0.000001546649    -0.000002574552
       5       -0.000000808487     0.000020454793    -0.000000698471
       6       -0.000005925022    -0.000017257294     0.000000657527
       7       -0.005478242135     0.002218746115    -0.000027774751
       8       -0.000001747747     0.000004643927     0.000001997525
       9       -0.000000478481     0.000003950936     0.000000820123
      10        0.000000166647    -0.000001033021    -0.000000210138
      11       -0.000000003982    -0.000004710388     0.000001780461
      12        0.000003397379     0.000001096167     0.000001320480
      13        0.003591858683    -0.002935229368     0.000069754883
      14       -0.000035549378     0.000003157258     0.000015567596
      15        0.000012123329    -0.000002306612    -0.000009391306
      16        0.000010063142     0.000007264826    -0.000002525867
      17       -0.000000771315     0.000001506099    -0.000003928325
      18       -0.000004636107     0.000003090156    -0.000011194607

  **** Optimization is complete! (in 7 steps) ****
    Final optimized geometry and variables:
    Molecular point group: c1

    Geometry (in Angstrom), charge = 1, multiplicity = 1:

    C           -0.004322230774     0.061188589150    -0.188761558288
    C            1.207210992480    -0.120344008148     0.498972696901
    C            1.199333019563    -0.168002987579     1.891076390553
    C           -0.003956163193    -0.035453418280     2.589893691116
    C           -1.209681318911     0.131763504769     1.901797741689
    C           -1.219222223251     0.162274193871     0.509646526800
    C           -0.008567885551     0.023192984593    -1.661597695230
    H            2.137067983863    -0.242208494902    -0.049327850601
    H            2.130030721660    -0.316761457500     2.429053175200
    H           -0.003105171365    -0.068029918000     3.675048783203
    H           -2.140934205274     0.236653208807     2.449049852184
    H           -2.152353211418     0.299083523822    -0.029905413954
    N           -0.743826580472    -0.887574990843    -2.286233374370
    N            0.775498185998     0.853923054209    -2.336633854071
    H            0.896929381608     0.812902293870    -3.342609624962
    H            1.261771966599     1.589844864917    -1.840023441521
    H           -1.256627178516    -1.569047270792    -1.741056406482
    H           -0.846019809142    -0.925202344998    -3.294561226384

  Mulliken Charges: (a.u.)
   Center  Symbol    Alpha    Beta     Spin     Total
       1     C     2.97697  2.97697  0.00000  0.04606
       2     C     3.07383  3.07383  0.00000 -0.14765
       3     C     3.06215  3.06215  0.00000 -0.12430
       4     C     3.05246  3.05246  0.00000 -0.10493
       5     C     3.06310  3.06310  0.00000 -0.12620
       6     C     3.07839  3.07839  0.00000 -0.15678
       7     C     2.73633  2.73633  0.00000  0.52734
       8     H     0.41334  0.41334  0.00000  0.17333
       9     H     0.40627  0.40627  0.00000  0.18747
      10     H     0.40523  0.40523  0.00000  0.18954
      11     H     0.40629  0.40629  0.00000  0.18741
      12     H     0.41349  0.41349  0.00000  0.17302
      13     N     3.85212  3.85212  0.00000 -0.70423
      14     N     3.85414  3.85414  0.00000 -0.70827
      15     H     0.30546  0.30546  0.00000  0.38909
      16     H     0.29747  0.29747  0.00000  0.40505
      17     H     0.29752  0.29752  0.00000  0.40497
      18     H     0.30546  0.30546  0.00000  0.38909

   Total alpha = 32.00000, Total beta = 32.00000, Total charge =  1.00000

*** Psi4 exiting successfully. Buy a developer a beer!
