                               Psi4 1.1 release

  ==> Input File <==

--------------------------------------------------------------------------
set_num_threads(1)
set_memory(4203741184)

set { reference rks }
set { basis cc-pVDZ }

molecule MOL {
    0 1
    noreorient
    nocom
    symmetry c1
    O    1.050400   0.042900  -0.048100
    C    2.474100   0.047400  -0.029000
    C    3.002600  -1.068900  -0.932000
    N    4.462700  -1.072400  -1.006800
    H    0.782398  -0.567391  -0.756430
    H    2.809900  -0.097900   1.003200
    H    2.817400   1.026800  -0.378600
    H    2.581000  -0.963300  -1.938400
    H    2.653800  -2.036400  -0.553400
    H    4.779000  -0.221000  -1.470000
    H    4.758600  -1.842500  -1.606500
}

set optking { frozen_dihedral = (" 3 2 1 5 ") }

energy, wfn = energy('B3LYP-D3', return_wfn=True)

import os
os.chdir(os.environ['HTMD_PSI4_WORKDIR'])

oeprop(wfn, 'DIPOLE', 'QUADRUPOLE', 'MULLIKEN_CHARGES')

with open('psi4out.xyz', 'w') as f:
    f.write('11 ' )
    f.write('%.12f\n' % energy)
    f.write(MOL.save_string_xyz())
--------------------------------------------------------------------------

    Molecular point group: c1

    Geometry (in Angstrom), charge = 0, multiplicity = 1:

       Center              X                  Y                   Z               Mass
    ------------   -----------------  -----------------  -----------------  -----------------
           O          1.050400000000     0.042900000000    -0.048100000000    15.994914619560
           C          2.474100000000     0.047400000000    -0.029000000000    12.000000000000
           C          3.002600000000    -1.068900000000    -0.932000000000    12.000000000000
           N          4.462700000000    -1.072400000000    -1.006800000000    14.003074004780
           H          0.782398000000    -0.567391000000    -0.756430000000     1.007825032070
           H          2.809900000000    -0.097900000000     1.003200000000     1.007825032070
           H          2.817400000000     1.026800000000    -0.378600000000     1.007825032070
           H          2.581000000000    -0.963300000000    -1.938400000000     1.007825032070
           H          2.653800000000    -2.036400000000    -0.553400000000     1.007825032070
           H          4.779000000000    -0.221000000000    -1.470000000000     1.007825032070
           H          4.758600000000    -1.842500000000    -1.606500000000     1.007825032070

  Charge       = 0
  Multiplicity = 1
  Basis Set: CC-PVDZ
    Blend: CC-PVDZ
   => B3LYP Composite Functional <=
  Basis Set: (CC-PVDZ AUX)
    Blend: CC-PVDZ-JKFIT

    Orbital Energies (a.u.)
    -----------------------

    Doubly Occupied:

       1A    -19.126520     2A    -14.312452     3A    -10.224061
       4A    -10.213331     5A     -1.010531     6A     -0.884509
       7A     -0.712516     8A     -0.619538     9A     -0.504826
      10A     -0.473533    11A     -0.450357    12A     -0.444603
      13A     -0.396994    14A     -0.370982    15A     -0.320888
      16A     -0.261865    17A     -0.239909

  @DF-RKS Final Energy:  -210.39032824610203

   => Energetics <=

    Nuclear Repulsion Energy =            131.1120622114959247
    One-Electron Energy =                -544.9873119051010235
    Two-Electron Energy =                 226.9771761310191778
    DFT Exchange-Correlation Energy =     -23.4871201435161012
    Empirical Dispersion Energy =          -0.0051345400000000
    PCM Polarization Energy =               0.0000000000000000
    EFP Energy =                            0.0000000000000000
    Total Energy =                       -210.3903282461020297

  Mulliken Charges: (a.u.)
   Center  Symbol    Alpha    Beta     Spin     Total
       1     O     4.13815  4.13815  0.00000 -0.27630
       2     C     2.91311  2.91311  0.00000  0.17377
       3     C     3.01210  3.01210  0.00000 -0.02421
       4     N     3.58875  3.58875  0.00000 -0.17750
       5     H     0.43326  0.43326  0.00000  0.13347
       6     H     0.49077  0.49077  0.00000  0.01847
       7     H     0.50098  0.50098  0.00000 -0.00197
       8     H     0.50515  0.50515  0.00000 -0.01030
       9     H     0.49035  0.49035  0.00000  0.01931
      10     H     0.46374  0.46374  0.00000  0.07253
      11     H     0.46364  0.46364  0.00000  0.07272

   Total alpha = 17.00000, Total beta = 17.00000, Total charge =  0.00000

*** Psi4 exiting successfully. Buy a developer a beer!
