                               Psi4 1.1 release

  ==> Input File <==

--------------------------------------------------------------------------
set_num_threads(1)
set_memory(4203741184)

set { reference rks }
set { basis cc-pVDZ }

molecule MOL {
    0 1
    noreorient
    nocom
    symmetry c1
    O    1.141000   0.017000   0.083000
    C    2.558000   0.086000  -0.005000
    C    3.192000  -0.789000   1.067000
    O    4.610000  -0.719000   0.979000
    H    0.790348   0.706569  -0.506898
    H    2.874000   1.128000   0.115000
    H    2.871000  -0.243000  -1.001000
    H    2.876000  -1.830000   0.947000
    H    2.879000  -0.459000   2.064000
    H    4.961000  -1.293000   1.682000
}

set optking { frozen_dihedral = (" 3 2 1 5 ") }

energy, wfn = energy('B3LYP-D3', return_wfn=True)

import os
os.chdir(os.environ['HTMD_PSI4_WORKDIR'])

oeprop(wfn, 'DIPOLE', 'QUADRUPOLE', 'MULLIKEN_CHARGES')

with open('psi4out.xyz', 'w') as f:
    f.write('10 ' )
    f.write('%.12f\n' % energy)
    f.write(MOL.save_string_xyz())
--------------------------------------------------------------------------

    Molecular point group: c1

    Geometry (in Angstrom), charge = 0, multiplicity = 1:

       Center              X                  Y                   Z               Mass
    ------------   -----------------  -----------------  -----------------  -----------------
           O          1.141000000000     0.017000000000     0.083000000000    15.994914619560
           C          2.558000000000     0.086000000000    -0.005000000000    12.000000000000
           C          3.192000000000    -0.789000000000     1.067000000000    12.000000000000
           O          4.610000000000    -0.719000000000     0.979000000000    15.994914619560
           H          0.790348000000     0.706569000000    -0.506898000000     1.007825032070
           H          2.874000000000     1.128000000000     0.115000000000     1.007825032070
           H          2.871000000000    -0.243000000000    -1.001000000000     1.007825032070
           H          2.876000000000    -1.830000000000     0.947000000000     1.007825032070
           H          2.879000000000    -0.459000000000     2.064000000000     1.007825032070
           H          4.961000000000    -1.293000000000     1.682000000000     1.007825032070

  Charge       = 0
  Multiplicity = 1
  Basis Set: CC-PVDZ
    Blend: CC-PVDZ
   => B3LYP Composite Functional <=
  Basis Set: (CC-PVDZ AUX)
    Blend: CC-PVDZ-JKFIT

    Orbital Energies (a.u.)
    -----------------------

    Doubly Occupied:

       1A    -19.131703     2A    -19.131623     3A    -10.226319
       4A    -10.226124     5A     -1.018864     6A     -1.008596
       7A     -0.732292     8A     -0.603722     9A     -0.525985
      10A     -0.480080    11A     -0.473815    12A     -0.412520
      13A     -0.395148    14A     -0.349887    15A     -0.319331
      16A     -0.264203    17A     -0.263498

  @DF-RKS Final Energy:  -230.25727662083372

   => Energetics <=

    Nuclear Repulsion Energy =            129.4446781137575044
    One-Electron Energy =                -570.6436999152688259
    Two-Electron Energy =                 235.4849260415567471
    DFT Exchange-Correlation Energy =     -24.5387713108791452
    Empirical Dispersion Energy =          -0.0044095500000000
    PCM Polarization Energy =               0.0000000000000000
    EFP Energy =                            0.0000000000000000
    Total Energy =                       -230.2572766208337214

  Mulliken Charges: (a.u.)
   Center  Symbol    Alpha    Beta     Spin     Total
       1     O     4.14042  4.14042  0.00000 -0.28083
       2     C     2.93630  2.93630  0.00000  0.12739
       3     C     2.93634  2.93634  0.00000  0.12733
       4     O     4.14067  4.14067  0.00000 -0.28135
       5     H     0.42725  0.42725  0.00000  0.14550
       6     H     0.49815  0.49815  0.00000  0.00371
       7     H     0.49762  0.49762  0.00000  0.00476
       8     H     0.49753  0.49753  0.00000  0.00494
       9     H     0.49845  0.49845  0.00000  0.00310
      10     H     0.42727  0.42727  0.00000  0.14545

   Total alpha = 17.00000, Total beta = 17.00000, Total charge = -0.00000

*** Psi4 exiting successfully. Buy a developer a beer!
