                              Psi4 1.0.54 Driver

  ==> Input File <==

--------------------------------------------------------------------------
set_num_threads(1)
set_memory(3145728000)

set { reference rks }
set { basis 6-31G* }

molecule MOL {
    1 1
    noreorient
    nocom
    symmetry c1
    C    0.000000   0.000000  -0.177864
    C    0.036678   1.219374   0.524165
    C    0.031764   1.213119   1.915444
    C   -0.000000  -0.000000   2.610107
    C   -0.031764  -1.213119   1.915444
    C   -0.036677  -1.219374   0.524165
    C    0.000000  -0.000000  -1.644734
    H    0.018170   2.164705  -0.010853
    H    0.042402   2.152895   2.457886
    H   -0.000000  -0.000000   3.695756
    H   -0.042402  -2.152895   2.457886
    H   -0.018170  -2.164705  -0.010853
    N   -0.712590  -0.905950  -2.308460
    N    0.712590   0.905950  -2.308461
    H    0.673432   1.006469  -3.315997
    H    1.377190   1.485970  -1.813317
    H   -1.218470  -0.637219  -3.142218
    H   -0.725961  -1.887476  -2.057076
}

set optking { frozen_dihedral = (" 1 7 13 17 ") }

set optking { dynamic_level = 1
 geom_maxiter = 250
 print_trajectory_xyz_file = True }

energy, wfn = optimize('B3LYP-D3', return_wfn=True)

import os
os.chdir(os.environ['HTMD_PSI4_WORKDIR'])

oeprop(wfn, 'DIPOLE', 'QUADRUPOLE', 'MULLIKEN_CHARGES')

with open('psi4out.xyz', 'w') as f:
    f.write('18 ' )
    f.write('%.12f\n' % energy)
    f.write(MOL.save_string_xyz())
--------------------------------------------------------------------------

    Molecular point group: c1
  Charge       = 1
  Multiplicity = 1
  Basis Set: 6-31G*
   => B3LYP-D3 Composite Functional <=
  Basis Set:
  @DF-RKS Final Energy:  -381.44723078932776
    Total Energy =                       -381.4472307893278753
    Molecular point group: c1
  Basis Set: 6-31G*
  Basis Set:
   => B3LYP-D3 Composite Functional <=
  Basis Set: 6-31G*
   => B3LYP-D3 Composite Functional <=
  Basis Set:
  @DF-RKS Final Energy:  -381.45510731068021
    Total Energy =                       -381.4551073106802050
  Basis Set: 6-31G*
  Basis Set:
   => B3LYP-D3 Composite Functional <=
  Basis Set: 6-31G*
   => B3LYP-D3 Composite Functional <=
  Basis Set:
  @DF-RKS Final Energy:  -381.45798156839737
    Total Energy =                       -381.4579815683974289
  Basis Set: 6-31G*
  Basis Set:
  @DF-RKS Final Energy:  -381.46167149731326
    Total Energy =                       -381.4616714973132616
  @DF-RKS Final Energy:  -381.46241333631480
    Total Energy =                       -381.4624133363147394
   => B3LYP-D3 Composite Functional <=
  Basis Set:
  @DF-RKS Final Energy:  -381.46251174514231
    Total Energy =                       -381.4625117451422511
  Basis Set: 6-31G*
  Basis Set:
   => B3LYP-D3 Composite Functional <=
  Basis Set: 6-31G*
   => B3LYP-D3 Composite Functional <=
  Basis Set:
  @DF-RKS Final Energy:  -381.46254151873040
    Total Energy =                       -381.4625415187304611
  Basis Set: 6-31G*
  Basis Set:
   => B3LYP-D3 Composite Functional <=
  Charge       = 1
  Multiplicity = 1
  Basis Set: 6-31G*
   => B3LYP-D3 Composite Functional <=
  Basis Set:

    Orbital Energies (a.u.)
    -----------------------

    Doubly Occupied:

       1A    -14.573747     2A    -14.561707     3A    -10.501020
       4A    -10.377487     5A    -10.359910     6A    -10.358676
       7A    -10.344995     8A    -10.343023     9A    -10.342777
      10A     -1.185632    11A     -1.093305    12A     -1.017049
      13A     -0.928656    14A     -0.905028    15A     -0.845671
      16A     -0.785932    17A     -0.775510    18A     -0.739419
      19A     -0.732667    20A     -0.679563    21A     -0.670404
      22A     -0.632035    23A     -0.614612    24A     -0.595429
      25A     -0.579650    26A     -0.576643    27A     -0.518966
      28A     -0.509594    29A     -0.500920    30A     -0.475235
      31A     -0.412616    32A     -0.408201

  @DF-RKS Final Energy:  -381.46254277825278

   => Energetics <=

    Nuclear Repulsion Energy =            416.7155947455964906
    One-Electron Energy =               -1328.5193165932250849
    Two-Electron Energy =                 574.7545523592036716
    DFT Exchange-Correlation Energy =     -44.4015300498278549
    Empirical Dispersion Energy =          -0.0118432400000000
    PCM Polarization Energy =               0.0000000000000000
    EFP Energy =                            0.0000000000000000
    Total Energy =                       -381.4625427782527822
    Molecular point group: c1
  Basis Set: 6-31G*
  Basis Set:
   => B3LYP-D3 Composite Functional <=

  -Total Gradient:
     Atom            X                  Y                   Z
    ------   -----------------  -----------------  -----------------
       1       -0.006541162405     0.004850717932    -0.000156285919
       2        0.000025708791    -0.000065512862     0.000028138804
       3       -0.000006623085     0.000033769022    -0.000008112158
       4        0.000005328036    -0.000021453877    -0.000001468237
       5        0.000007073490     0.000007308719     0.000015094804
       6       -0.000014166638    -0.000021097320     0.000005780900
       7        0.006739240127    -0.006541895300     0.002566740472
       8       -0.000020943316     0.000010903528     0.000015484854
       9        0.000001097756    -0.000001784122     0.000002217616
      10       -0.000002968233     0.000002989118    -0.000000507846
      11       -0.000007642178    -0.000001936372    -0.000003104180
      12        0.000000947522     0.000001271931     0.000020964184
      13        0.009363012470    -0.000361542607    -0.008719603374
      14       -0.000016895644    -0.000082834108    -0.000031566172
      15       -0.000013859617     0.000016580811     0.000003909832
      16        0.000008858309     0.000003869143    -0.000006763645
      17       -0.009497639014     0.002163215493     0.006250989061
      18       -0.000029921825     0.000004938517    -0.000001183604

  **** Optimization is complete! (in 8 steps) ****
    Final optimized geometry and variables:
    Molecular point group: c1

    Geometry (in Angstrom), charge = 1, multiplicity = 1:

    C            0.058992536528    -0.028304886063    -0.190416687147
    C            0.058796181111     1.194000803222     0.507773821354
    C            0.009126400472     1.192753456735     1.898548988607
    C           -0.018507519312    -0.016271842767     2.599271573138
    C           -0.005454879316    -1.232585833033     1.909424571817
    C            0.027431213621    -1.244328980188     0.519100934713
    C            0.078348166787    -0.031868592189    -1.658136418574
    H            0.034939873769     2.140021144296    -0.025515668780
    H           -0.016286509808     2.135787043493     2.434831324085
    H           -0.051267129571    -0.010909774013     3.684341448450
    H           -0.012127150428    -2.170498651108     2.455069552584
    H            0.080873906405    -2.194594323992    -0.005785690754
    N           -0.594567501609    -0.968170622366    -2.353025190112
    N            0.697524333834     0.937084912078    -2.318069570125
    H            0.708385072997     0.980537384359    -3.330938129660
    H            1.290679061128     1.592401307289    -1.825569671808
    H           -1.091443149862    -0.701643358024    -3.197879901507
    H           -1.149250906746    -1.605665187730    -1.792005286281

  Mulliken Charges: (a.u.)
   Center  Symbol    Alpha    Beta     Spin     Total
       1     C     2.94953  2.94953  0.00000  0.10094
       2     C     3.08353  3.08353  0.00000 -0.16706
       3     C     3.06225  3.06225  0.00000 -0.12450
       4     C     3.05149  3.05149  0.00000 -0.10298
       5     C     3.06218  3.06218  0.00000 -0.12435
       6     C     3.08661  3.08661  0.00000 -0.17322
       7     C     2.73992  2.73992  0.00000  0.52016
       8     H     0.41551  0.41551  0.00000  0.16897
       9     H     0.40494  0.40494  0.00000  0.19011
      10     H     0.40331  0.40331  0.00000  0.19337
      11     H     0.40461  0.40461  0.00000  0.19077
      12     H     0.41133  0.41133  0.00000  0.17734
      13     N     3.85655  3.85655  0.00000 -0.71311
      14     N     3.85604  3.85604  0.00000 -0.71207
      15     H     0.30256  0.30256  0.00000  0.39489
      16     H     0.29863  0.29863  0.00000  0.40274
      17     H     0.30547  0.30547  0.00000  0.38907
      18     H     0.30554  0.30554  0.00000  0.38892

   Total alpha = 32.00000, Total beta = 32.00000, Total charge =  1.00000

*** Psi4 exiting successfully. Buy a developer a beer!
