                               Psi4 1.1 release

  ==> Input File <==

--------------------------------------------------------------------------
set_num_threads( 8 )
memory 2.000000 gb

set { reference rks }
set { basis cc-pVDZ }

molecule MOL {
    0 1
    noreorient
    nocom
    symmetry c1
    O    1.050400   0.042900  -0.048100
    C    2.474100   0.047400  -0.029000
    C    3.002600  -1.068900  -0.932000
    N    1.922170  -1.827002  -1.560850
    H    0.760400   0.728400   0.578000
    H    2.809900  -0.097900   1.003200
    H    2.817400   1.026800  -0.378600
    H    3.639975  -1.745821  -0.351251
    H    3.643459  -0.634258  -1.707527
    H    1.399319  -2.328099  -0.843208
    H    2.330369  -2.544120  -2.160323
}

set optking { frozen_dihedral = (" 1 2 3 4 ") }

energy, wfn = energy('B3LYP-D3', return_wfn=True)

import os
os.chdir(os.environ['HTMD_PSI4_WORKDIR'])

oeprop(wfn, 'DIPOLE', 'QUADRUPOLE', 'MULLIKEN_CHARGES')

with open('psi4out.xyz', 'w') as f:
    f.write('11 ' )
    f.write('%.12f\n' % energy)
    f.write(MOL.save_string_xyz())
--------------------------------------------------------------------------

    Molecular point group: c1

    Geometry (in Angstrom), charge = 0, multiplicity = 1:

       Center              X                  Y                   Z               Mass
    ------------   -----------------  -----------------  -----------------  -----------------
           O          1.050400000000     0.042900000000    -0.048100000000    15.994914619560
           C          2.474100000000     0.047400000000    -0.029000000000    12.000000000000
           C          3.002600000000    -1.068900000000    -0.932000000000    12.000000000000
           N          1.922170000000    -1.827002000000    -1.560850000000    14.003074004780
           H          0.760400000000     0.728400000000     0.578000000000     1.007825032070
           H          2.809900000000    -0.097900000000     1.003200000000     1.007825032070
           H          2.817400000000     1.026800000000    -0.378600000000     1.007825032070
           H          3.639975000000    -1.745821000000    -0.351251000000     1.007825032070
           H          3.643459000000    -0.634258000000    -1.707527000000     1.007825032070
           H          1.399319000000    -2.328099000000    -0.843208000000     1.007825032070
           H          2.330369000000    -2.544120000000    -2.160323000000     1.007825032070

  Charge       = 0
  Multiplicity = 1
  Basis Set: CC-PVDZ
    Blend: CC-PVDZ
   => B3LYP Composite Functional <=
  Basis Set: (CC-PVDZ AUX)
    Blend: CC-PVDZ-JKFIT

    Orbital Energies (a.u.)
    -----------------------

    Doubly Occupied:

       1A    -19.122918     2A    -14.293165     3A    -10.222632
       4A    -10.200555     5A     -1.006810     6A     -0.866020
       7A     -0.714127     8A     -0.590165     9A     -0.511567
      10A     -0.478932    11A     -0.443736    12A     -0.411802
      13A     -0.388184    14A     -0.356511    15A     -0.322160
      16A     -0.258119    17A     -0.216498

  @DF-RKS Final Energy:  -210.38100750505879

   => Energetics <=

    Nuclear Repulsion Energy =            134.1877625174633977
    One-Electron Energy =                -551.4447485988001745
    Two-Electron Energy =                 230.3720101350971845
    DFT Exchange-Correlation Energy =     -23.4911653288191786
    Empirical Dispersion Energy =          -0.0048662300000000
    PCM Polarization Energy =               0.0000000000000000
    EFP Energy =                            0.0000000000000000
    Total Energy =                       -210.3810075050587898

  Mulliken Charges: (a.u.)
   Center  Symbol    Alpha    Beta     Spin     Total
       1     O     4.13309  4.13309  0.00000 -0.26619
       2     C     2.92825  2.92825  0.00000  0.14351
       3     C     2.98786  2.98786  0.00000  0.02428
       4     N     3.58070  3.58070  0.00000 -0.16139
       5     H     0.43294  0.43294  0.00000  0.13411
       6     H     0.50364  0.50364  0.00000 -0.00728
       7     H     0.50087  0.50087  0.00000 -0.00174
       8     H     0.50545  0.50545  0.00000 -0.01090
       9     H     0.49367  0.49367  0.00000  0.01266
      10     H     0.46487  0.46487  0.00000  0.07026
      11     H     0.46866  0.46866  0.00000  0.06268

   Total alpha = 17.00000, Total beta = 17.00000, Total charge = -0.00000

*** Psi4 exiting successfully. Buy a developer a beer!
