                               Psi4 1.1 release

  ==> Input File <==

--------------------------------------------------------------------------
set_num_threads(1)
set_memory(3145728000)

set { reference rks }
set { basis 6-31G* }

molecule MOL {
    1 1
    noreorient
    nocom
    symmetry c1
    C    0.000000   0.000000  -0.177864
    C    0.036678   1.219374   0.524165
    C    0.031764   1.213119   1.915444
    C   -0.000000  -0.000000   2.610107
    C   -0.031764  -1.213119   1.915444
    C   -0.036677  -1.219374   0.524165
    C    0.000000  -0.000000  -1.644734
    H    0.018170   2.164705  -0.010853
    H    0.042402   2.152895   2.457886
    H   -0.000000  -0.000000   3.695756
    H   -0.042402  -2.152895   2.457886
    H   -0.018170  -2.164705  -0.010853
    N    0.034654   1.152097  -2.308461
    N   -0.034654  -1.152098  -2.308460
    H    0.056579  -1.209666  -3.315997
    H   -0.224421  -2.013552  -1.813316
    H    0.224422   2.013552  -1.813317
    H   -0.056579   1.209665  -3.315997
}

set optking { frozen_dihedral = (" 2 1 7 13 ") }

set optking { dynamic_level = 1
 geom_maxiter = 250
 print_trajectory_xyz_file = True }

energy, wfn = optimize('B3LYP-D3', return_wfn=True)

import os
os.chdir(os.environ['HTMD_PSI4_WORKDIR'])

oeprop(wfn, 'DIPOLE', 'QUADRUPOLE', 'MULLIKEN_CHARGES')

with open('psi4out.xyz', 'w') as f:
    f.write('18 ' )
    f.write('%.12f\n' % energy)
    f.write(MOL.save_string_xyz())
--------------------------------------------------------------------------

    Molecular point group: c1
  Charge       = 1
  Multiplicity = 1
  Basis Set: 6-31G*
    Blend: 6-31G*
   => B3LYP Composite Functional <=
  Basis Set: (6-31G* AUX)
    Blend: CC-PVDZ-JKFIT
  @DF-RKS Final Energy:  -381.46394989108592
    Total Energy =                       -381.4639498910859743
    Molecular point group: c1
  Basis Set: 6-31G*
    Blend: 6-31G*
  Basis Set: (6-31G* AUX)
    Blend: CC-PVDZ-JKFIT
   => B3LYP Composite Functional <=
  Basis Set: 6-31G*
    Blend: 6-31G*
   => B3LYP Composite Functional <=
  Basis Set: (6-31G* AUX)
    Blend: CC-PVDZ-JKFIT
  @DF-RKS Final Energy:  -381.46533208520862
    Total Energy =                       -381.4653320852085585
  Basis Set: 6-31G*
    Blend: 6-31G*
  Basis Set: (6-31G* AUX)
  @DF-RKS Final Energy:  -381.46580343313337
    Total Energy =                       -381.4658034331333170
  @DF-RKS Final Energy:  -381.46583616355815
    Total Energy =                       -381.4658361635580945
  @DF-RKS Final Energy:  -381.46585506653696
    Total Energy =                       -381.4658550665369603
  @DF-RKS Final Energy:  -381.46586558058590
    Total Energy =                       -381.4658655805859553
  @DF-RKS Final Energy:  -381.46585506653605
    Total Energy =                       -381.4658550665359940
  @DF-RKS Final Energy:  -381.46585506653679
    Total Energy =                       -381.4658550665367329
  @DF-RKS Final Energy:  -381.46585790920369
    Total Energy =                       -381.4658579092036916
   => B3LYP Composite Functional <=
  Basis Set: (6-31G* AUX)
    Blend: CC-PVDZ-JKFIT
  @DF-RKS Final Energy:  -381.46585905349900
    Total Energy =                       -381.4658590534990594
  Basis Set: 6-31G*
    Blend: 6-31G*
  Basis Set: (6-31G* AUX)
    Blend: CC-PVDZ-JKFIT
   => B3LYP Composite Functional <=
  Charge       = 1
  Multiplicity = 1
  Basis Set: 6-31G*
    Blend: 6-31G*
   => B3LYP Composite Functional <=
  Basis Set: (6-31G* AUX)
    Blend: CC-PVDZ-JKFIT

    Orbital Energies (a.u.)
    -----------------------

    Doubly Occupied:

       1A    -14.564908     2A    -14.564755     3A    -10.498692
       4A    -10.378667     5A    -10.361714     6A    -10.361643
       7A    -10.346562     8A    -10.342996     9A    -10.342954
      10A     -1.183278    11A     -1.088959    12A     -1.017473
      13A     -0.928929    14A     -0.906334    15A     -0.849074
      16A     -0.787411    17A     -0.776814    18A     -0.739996
      19A     -0.735928    20A     -0.686176    21A     -0.669510
      22A     -0.632424    23A     -0.609145    24A     -0.604289
      25A     -0.582583    26A     -0.578366    27A     -0.518386
      28A     -0.510210    29A     -0.501775    30A     -0.470103
      31A     -0.413563    32A     -0.408131

  @DF-RKS Final Energy:  -381.46585996967156

   => Energetics <=

    Nuclear Repulsion Energy =            416.4916877502513444
    One-Electron Energy =               -1328.0423431865203838
    Two-Electron Energy =                 574.5052510113713424
    DFT Exchange-Correlation Energy =     -44.4089923747738524
    Empirical Dispersion Energy =          -0.0114631700000000
    PCM Polarization Energy =               0.0000000000000000
    EFP Energy =                            0.0000000000000000
    Total Energy =                       -381.4658599696715555
    Molecular point group: c1
  Basis Set: 6-31G*
    Blend: 6-31G*
  Basis Set: (6-31G* AUX)
    Blend: CC-PVDZ-JKFIT
   => B3LYP Composite Functional <=

  -Total Gradient:
     Atom            X                  Y                   Z
    ------   -----------------  -----------------  -----------------
       1       -0.005395622482     0.000181692373     0.000046913347
       2        0.002612967580    -0.000059720755     0.000057131616
       3       -0.000024178777    -0.000014095420     0.000003198415
       4        0.000018097281     0.000002452329    -0.000032460303
       5        0.000026325586     0.000016326525     0.000003454078
       6        0.000045110040    -0.000029644474    -0.000003241228
       7        0.005619436336    -0.000225976981    -0.000014371069
       8       -0.000064264847    -0.000013772248     0.000007384407
       9        0.000020510252     0.000002194657    -0.000000020905
      10        0.000008776031    -0.000001365030    -0.000007195196
      11        0.000001455780    -0.000001690968    -0.000004667417
      12        0.000016537200     0.000017360163     0.000005052707
      13       -0.002937240752     0.000173449211    -0.000098868601
      14       -0.000032895670    -0.000075283744     0.000029862056
      15        0.000026040638     0.000015800335     0.000025063656
      16       -0.000076840138     0.000039916132    -0.000040424869
      17        0.000127680071    -0.000010320493    -0.000014849372
      18        0.000007135369    -0.000017031881     0.000045660888

  **** Optimization is complete! (in 4 steps) ****
    Final optimized geometry and variables:
    Molecular point group: c1

    Geometry (in Angstrom), charge = 1, multiplicity = 1:

    C           -0.027240909786     0.000523278953    -0.176502002012
    C           -0.000230883855     1.212439093102     0.542968405475
    C            0.008839803491     1.209890020924     1.932603124235
    C           -0.000794167691     0.000127314993     2.631382292869
    C           -0.015933160612    -1.209511255845     1.932548507037
    C           -0.021059806535    -1.211743063961     0.542865496805
    C            0.007445942388    -0.000421181973    -1.648352347788
    H           -0.016351821283     2.175462165835     0.042304441175
    H            0.021819224374     2.152421144099     2.469859731964
    H            0.006763202090     0.000002666661     3.716891256061
    H           -0.015511915045    -2.152196671515     2.469687925555
    H           -0.003799932901    -2.174699840095     0.042140602933
    N            0.065023427672     1.139827241898    -2.335335955896
    N           -0.061183920280    -1.139063400182    -2.336238982534
    H           -0.028032333954    -1.160429599064    -3.347720686842
    H           -0.203680634031    -2.025714659211    -1.876452185866
    H            0.213636808138     2.025004943431    -1.874406866470
    H            0.070321644746     1.158072864365    -3.347443955092

  Mulliken Charges: (a.u.)
   Center  Symbol    Alpha    Beta     Spin     Total
       1     C     2.92437  2.92437  0.00000  0.15126
       2     C     3.08716  3.08716  0.00000 -0.17432
       3     C     3.06133  3.06133  0.00000 -0.12265
       4     C     3.05128  3.05128  0.00000 -0.10257
       5     C     3.06137  3.06137  0.00000 -0.12273
       6     C     3.08661  3.08661  0.00000 -0.17321
       7     C     2.70563  2.70563  0.00000  0.58875
       8     H     0.42194  0.42194  0.00000  0.15612
       9     H     0.40493  0.40493  0.00000  0.19015
      10     H     0.40262  0.40262  0.00000  0.19476
      11     H     0.40492  0.40492  0.00000  0.19016
      12     H     0.42218  0.42218  0.00000  0.15564
      13     N     3.87747  3.87747  0.00000 -0.75493
      14     N     3.87774  3.87774  0.00000 -0.75547
      15     H     0.30596  0.30596  0.00000  0.38808
      16     H     0.29900  0.29900  0.00000  0.40200
      17     H     0.29942  0.29942  0.00000  0.40116
      18     H     0.30609  0.30609  0.00000  0.38782

   Total alpha = 32.00000, Total beta = 32.00000, Total charge =  1.00000

*** Psi4 exiting successfully. Buy a developer a beer!
