                               Psi4 1.1 release

  ==> Input File <==

--------------------------------------------------------------------------
set {
	reference rks
	basis cc-pvdz
}

set_num_threads( 8 )
memory 2 gb

molecule MOL {
0 1

O	 1.014300	 -0.002300	 0.060500
O	 2.462400	 -0.107500	 -0.002400
H	 0.917190	 -0.340387	 0.971141
H	 2.655500	 0.713700	 0.488700

	symmetry c1
}
set optking { dynamic_level = 1 }
set optking {
	frozen_dihedral = ("
		3 1 2 4
	")
}

ee,wfn = energy('b3lyp-d3', return_wfn=True)
oeprop( wfn, 'DIPOLE', 'QUADRUPOLE', 'MULLIKEN_CHARGES')
f=open( 'psi4out.xyz', 'w' )
f.write( "4  " )
f.write( str(ee) + "\n" )
f.write( MOL.save_string_xyz() )
f.close()
--------------------------------------------------------------------------

    Molecular point group: c1

    Geometry (in Angstrom), charge = 0, multiplicity = 1:

       Center              X                  Y                   Z               Mass
    ------------   -----------------  -----------------  -----------------  -----------------
           O         -0.726894868733     0.038281914071    -0.010093589363    15.994914619560
           O          0.721205131267    -0.066918085929    -0.072993589363    15.994914619560
           H         -0.824004868733    -0.299805085929     0.900547410637     1.007825032070
           H          0.914305131267     0.754281914071     0.418106410637     1.007825032070

  Charge       = 0
  Multiplicity = 1
  Basis Set: CC-PVDZ
    Blend: CC-PVDZ
   => B3LYP Composite Functional <=
  Basis Set: (CC-PVDZ AUX)
    Blend: CC-PVDZ-JKFIT

    Orbital Energies (a.u.)
    -----------------------

    Doubly Occupied:

       1A    -19.190357     2A    -19.190317     3A     -1.116173
       4A     -0.886923     5A     -0.532664     6A     -0.466487
       7A     -0.421884     8A     -0.300987     9A     -0.282566

  @DF-RKS Final Energy:  -151.54735313314785

   => Energetics <=

    Nuclear Repulsion Energy =             36.8296607781611911
    One-Electron Energy =                -281.5935653387951447
    Two-Electron Energy =                 107.6783180522160848
    DFT Exchange-Correlation Energy =     -14.4615202547299440
    Empirical Dispersion Energy =          -0.0002463700000000
    PCM Polarization Energy =               0.0000000000000000
    EFP Energy =                            0.0000000000000000
    Total Energy =                       -151.5473531331478227

  Mulliken Charges: (a.u.)
   Center  Symbol    Alpha    Beta     Spin     Total
       1     O     4.08687  4.08687  0.00000 -0.17375
       2     O     4.08685  4.08685  0.00000 -0.17371
       3     H     0.41313  0.41313  0.00000  0.17375
       4     H     0.41315  0.41315  0.00000  0.17371

   Total alpha =  9.00000, Total beta =  9.00000, Total charge =  0.00000

*** Psi4 exiting successfully. Buy a developer a beer!
