                               Psi4 1.1 release

  ==> Input File <==

--------------------------------------------------------------------------
set_num_threads(1)
set_memory(4203741184)

set { reference rks }
set { basis cc-pVDZ }

molecule MOL {
    0 1
    noreorient
    nocom
    symmetry c1
    O    1.050400   0.042900  -0.048100
    C    2.474100   0.047400  -0.029000
    C    3.002600  -1.068900  -0.932000
    N    4.446405  -0.971882  -1.140598
    H    0.760400   0.728400   0.578000
    H    2.809900  -0.097900   1.003200
    H    2.817400   1.026800  -0.378600
    H    2.486520  -1.040119  -1.898732
    H    2.762447  -2.040283  -0.485012
    H    4.655479  -0.122398  -1.664187
    H    4.744838  -1.745801  -1.734096
}

set optking { frozen_dihedral = (" 1 2 3 4 ") }

energy, wfn = energy('B3LYP-D3', return_wfn=True)

import os
os.chdir(os.environ['HTMD_PSI4_WORKDIR'])

oeprop(wfn, 'DIPOLE', 'QUADRUPOLE', 'MULLIKEN_CHARGES')

with open('psi4out.xyz', 'w') as f:
    f.write('11 ' )
    f.write('%.12f\n' % energy)
    f.write(MOL.save_string_xyz())
--------------------------------------------------------------------------

    Molecular point group: c1

    Geometry (in Angstrom), charge = 0, multiplicity = 1:

       Center              X                  Y                   Z               Mass
    ------------   -----------------  -----------------  -----------------  -----------------
           O          1.050400000000     0.042900000000    -0.048100000000    15.994914619560
           C          2.474100000000     0.047400000000    -0.029000000000    12.000000000000
           C          3.002600000000    -1.068900000000    -0.932000000000    12.000000000000
           N          4.446405000000    -0.971882000000    -1.140598000000    14.003074004780
           H          0.760400000000     0.728400000000     0.578000000000     1.007825032070
           H          2.809900000000    -0.097900000000     1.003200000000     1.007825032070
           H          2.817400000000     1.026800000000    -0.378600000000     1.007825032070
           H          2.486520000000    -1.040119000000    -1.898732000000     1.007825032070
           H          2.762447000000    -2.040283000000    -0.485012000000     1.007825032070
           H          4.655479000000    -0.122398000000    -1.664187000000     1.007825032070
           H          4.744838000000    -1.745801000000    -1.734096000000     1.007825032070

  Charge       = 0
  Multiplicity = 1
  Basis Set: CC-PVDZ
    Blend: CC-PVDZ
   => B3LYP Composite Functional <=
  Basis Set: (CC-PVDZ AUX)
    Blend: CC-PVDZ-JKFIT

    Orbital Energies (a.u.)
    -----------------------

    Doubly Occupied:

       1A    -19.127081     2A    -14.304557     3A    -10.223975
       4A    -10.201694     5A     -1.009486     6A     -0.876494
       7A     -0.712145     8A     -0.597014     9A     -0.506139
      10A     -0.486935    11A     -0.451037    12A     -0.418148
      13A     -0.388340    14A     -0.363188    15A     -0.323474
      16A     -0.260699    17A     -0.230696

  @DF-RKS Final Energy:  -210.39102857037796

   => Energetics <=

    Nuclear Repulsion Energy =            130.4389637792377812
    One-Electron Energy =                -543.8155599415903225
    Two-Electron Energy =                 226.4771758206009622
    DFT Exchange-Correlation Energy =     -23.4867063386263659
    Empirical Dispersion Energy =          -0.0049018900000000
    PCM Polarization Energy =               0.0000000000000000
    EFP Energy =                            0.0000000000000000
    Total Energy =                       -210.3910285703779550

  Mulliken Charges: (a.u.)
   Center  Symbol    Alpha    Beta     Spin     Total
       1     O     4.13956  4.13956  0.00000 -0.27912
       2     C     2.92904  2.92904  0.00000  0.14193
       3     C     2.98458  2.98458  0.00000  0.03085
       4     N     3.59416  3.59416  0.00000 -0.18832
       5     H     0.42987  0.42987  0.00000  0.14026
       6     H     0.49789  0.49789  0.00000  0.00421
       7     H     0.50484  0.50484  0.00000 -0.00969
       8     H     0.50051  0.50051  0.00000 -0.00102
       9     H     0.49035  0.49035  0.00000  0.01931
      10     H     0.46572  0.46572  0.00000  0.06857
      11     H     0.46349  0.46349  0.00000  0.07303

   Total alpha = 17.00000, Total beta = 17.00000, Total charge =  0.00000

*** Psi4 exiting successfully. Buy a developer a beer!
