                               Psi4 1.1 release

  ==> Input File <==

--------------------------------------------------------------------------
set_num_threads(1)
set_memory(4203741184)

set { reference rks }
set { basis cc-pVDZ }

molecule MOL {
    0 1
    noreorient
    nocom
    symmetry c1
    O    1.141000   0.017000   0.083000
    C    2.558000   0.086000  -0.005000
    C    3.192000  -0.789000   1.067000
    O    4.610000  -0.719000   0.979000
    H    0.934244  -0.699712   0.707515
    H    2.874000   1.128000   0.115000
    H    2.871000  -0.243000  -1.001000
    H    2.876000  -1.830000   0.947000
    H    2.879000  -0.459000   2.064000
    H    4.961000  -1.293000   1.682000
}

set optking { frozen_dihedral = (" 3 2 1 5 ") }

energy, wfn = energy('B3LYP-D3', return_wfn=True)

import os
os.chdir(os.environ['HTMD_PSI4_WORKDIR'])

oeprop(wfn, 'DIPOLE', 'QUADRUPOLE', 'MULLIKEN_CHARGES')

with open('psi4out.xyz', 'w') as f:
    f.write('10 ' )
    f.write('%.12f\n' % energy)
    f.write(MOL.save_string_xyz())
--------------------------------------------------------------------------

    Molecular point group: c1

    Geometry (in Angstrom), charge = 0, multiplicity = 1:

       Center              X                  Y                   Z               Mass
    ------------   -----------------  -----------------  -----------------  -----------------
           O          1.141000000000     0.017000000000     0.083000000000    15.994914619560
           C          2.558000000000     0.086000000000    -0.005000000000    12.000000000000
           C          3.192000000000    -0.789000000000     1.067000000000    12.000000000000
           O          4.610000000000    -0.719000000000     0.979000000000    15.994914619560
           H          0.934244000000    -0.699712000000     0.707515000000     1.007825032070
           H          2.874000000000     1.128000000000     0.115000000000     1.007825032070
           H          2.871000000000    -0.243000000000    -1.001000000000     1.007825032070
           H          2.876000000000    -1.830000000000     0.947000000000     1.007825032070
           H          2.879000000000    -0.459000000000     2.064000000000     1.007825032070
           H          4.961000000000    -1.293000000000     1.682000000000     1.007825032070

  Charge       = 0
  Multiplicity = 1
  Basis Set: CC-PVDZ
    Blend: CC-PVDZ
   => B3LYP Composite Functional <=
  Basis Set: (CC-PVDZ AUX)
    Blend: CC-PVDZ-JKFIT

    Orbital Energies (a.u.)
    -----------------------

    Doubly Occupied:

       1A    -19.139679     2A    -19.133245     3A    -10.237518
       4A    -10.226699     5A     -1.025717     6A     -1.012579
       7A     -0.733653     8A     -0.626175     9A     -0.518338
      10A     -0.486596    11A     -0.476895    12A     -0.423568
      13A     -0.399201    14A     -0.355257    15A     -0.323744
      16A     -0.273453    17A     -0.265679

  @DF-RKS Final Energy:  -230.25578407394877

   => Energetics <=

    Nuclear Repulsion Energy =            130.1364300319277447
    One-Electron Energy =                -571.8356372883811218
    Two-Electron Energy =                 235.9865649768335345
    DFT Exchange-Correlation Energy =     -24.5385081843288830
    Empirical Dispersion Energy =          -0.0046336100000000
    PCM Polarization Energy =               0.0000000000000000
    EFP Energy =                            0.0000000000000000
    Total Energy =                       -230.2557840739487744

  Mulliken Charges: (a.u.)
   Center  Symbol    Alpha    Beta     Spin     Total
       1     O     4.13622  4.13622  0.00000 -0.27245
       2     C     2.91971  2.91971  0.00000  0.16057
       3     C     2.96153  2.96153  0.00000  0.07695
       4     O     4.13674  4.13674  0.00000 -0.27347
       5     H     0.43324  0.43324  0.00000  0.13352
       6     H     0.49076  0.49076  0.00000  0.01847
       7     H     0.49392  0.49392  0.00000  0.01216
       8     H     0.50106  0.50106  0.00000 -0.00211
       9     H     0.49891  0.49891  0.00000  0.00217
      10     H     0.42791  0.42791  0.00000  0.14419

   Total alpha = 17.00000, Total beta = 17.00000, Total charge = -0.00000

*** Psi4 exiting successfully. Buy a developer a beer!
