                               Psi4 1.1 release

  ==> Input File <==

--------------------------------------------------------------------------
set {
	reference rks
	basis cc-pvdz
}

set_num_threads( 8 )
memory 2 gb

molecule MOL {
0 1

O	 1.014300	 -0.002300	 0.060500
O	 2.462400	 -0.107500	 -0.002400
H	 0.973826	 0.475157	 0.911028
H	 2.655500	 0.713700	 0.488700

	symmetry c1
}
set optking { dynamic_level = 1 }
set optking {
	frozen_dihedral = ("
		3 1 2 4
	")
}

ee,wfn = energy('b3lyp-d3', return_wfn=True)
oeprop( wfn, 'DIPOLE', 'QUADRUPOLE', 'MULLIKEN_CHARGES')
f=open( 'psi4out.xyz', 'w' )
f.write( "4  " )
f.write( str(ee) + "\n" )
f.write( MOL.save_string_xyz() )
f.close()
--------------------------------------------------------------------------

    Molecular point group: c1

    Geometry (in Angstrom), charge = 0, multiplicity = 1:

       Center              X                  Y                   Z               Mass
    ------------   -----------------  -----------------  -----------------  -----------------
           O         -0.728573397596     0.014111525216    -0.008312012177    15.994914619560
           O          0.719526602404    -0.091088474784    -0.071212012177    15.994914619560
           H         -0.769047397596     0.491568525216     0.842215987823     1.007825032070
           H          0.912626602404     0.730111525216     0.419887987823     1.007825032070

  Charge       = 0
  Multiplicity = 1
  Basis Set: CC-PVDZ
    Blend: CC-PVDZ
   => B3LYP Composite Functional <=
  Basis Set: (CC-PVDZ AUX)
    Blend: CC-PVDZ-JKFIT

    Orbital Energies (a.u.)
    -----------------------

    Doubly Occupied:

       1A    -19.191950     2A    -19.191918     3A     -1.121267
       4A     -0.887470     5A     -0.557549     6A     -0.427760
       7A     -0.421391     8A     -0.354517     9A     -0.252372

  @DF-RKS Final Energy:  -151.53697571879488

   => Energetics <=

    Nuclear Repulsion Energy =             36.8787382056296380
    One-Electron Energy =                -281.6346093799300547
    Two-Electron Energy =                 107.6817397436963830
    DFT Exchange-Correlation Energy =     -14.4626611481908807
    Empirical Dispersion Energy =          -0.0001831400000000
    PCM Polarization Energy =               0.0000000000000000
    EFP Energy =                            0.0000000000000000
    Total Energy =                       -151.5369757187949062

  Mulliken Charges: (a.u.)
   Center  Symbol    Alpha    Beta     Spin     Total
       1     O     4.07965  4.07965  0.00000 -0.15931
       2     O     4.07964  4.07964  0.00000 -0.15927
       3     H     0.42035  0.42035  0.00000  0.15931
       4     H     0.42036  0.42036  0.00000  0.15927

   Total alpha =  9.00000, Total beta =  9.00000, Total charge =  0.00000

*** Psi4 exiting successfully. Buy a developer a beer!
