                               Psi4 1.1 release

  ==> Input File <==

--------------------------------------------------------------------------
set_num_threads(1)
set_memory(3145728000)

set { reference rks }
set { basis 6-31G* }

molecule MOL {
    1 1
    noreorient
    nocom
    symmetry c1
    C    0.000000   0.000000  -0.177864
    C    0.036678   1.219374   0.524165
    C    0.031764   1.213119   1.915444
    C   -0.000000  -0.000000   2.610107
    C   -0.031764  -1.213119   1.915444
    C   -0.036677  -1.219374   0.524165
    C    0.000000  -0.000000  -1.644734
    H    0.018170   2.164705  -0.010853
    H    0.042402   2.152895   2.457886
    H   -0.000000  -0.000000   3.695756
    H   -0.042402  -2.152895   2.457886
    H   -0.018170  -2.164705  -0.010853
    N   -1.128577   0.234187  -2.308461
    N    1.128577  -0.234187  -2.308461
    H    1.201113  -0.154337  -3.315997
    H    1.943992  -0.570662  -1.813317
    H   -1.943991   0.570662  -1.813317
    H   -1.201112   0.154336  -3.315997
}

set optking { frozen_dihedral = (" 2 1 7 13 ") }

set optking { dynamic_level = 1
 geom_maxiter = 250
 print_trajectory_xyz_file = True }

energy, wfn = optimize('B3LYP-D3', return_wfn=True)

import os
os.chdir(os.environ['HTMD_PSI4_WORKDIR'])

oeprop(wfn, 'DIPOLE', 'QUADRUPOLE', 'MULLIKEN_CHARGES')

with open('psi4out.xyz', 'w') as f:
    f.write('18 ' )
    f.write('%.12f\n' % energy)
    f.write(MOL.save_string_xyz())
--------------------------------------------------------------------------

    Molecular point group: c1
  Charge       = 1
  Multiplicity = 1
  Basis Set: 6-31G*
    Blend: 6-31G*
   => B3LYP Composite Functional <=
  Basis Set: (6-31G* AUX)
    Blend: CC-PVDZ-JKFIT
  @DF-RKS Final Energy:  -381.46184123950468
    Total Energy =                       -381.4618412395046789
    Molecular point group: c1
  Basis Set: 6-31G*
    Blend: 6-31G*
  Basis Set: (6-31G* AUX)
    Blend: CC-PVDZ-JKFIT
   => B3LYP Composite Functional <=
  Basis Set: 6-31G*
    Blend: 6-31G*
   => B3LYP Composite Functional <=
  Basis Set: (6-31G* AUX)
    Blend: CC-PVDZ-JKFIT
  @DF-RKS Final Energy:  -381.46407504527383
    Total Energy =                       -381.4640750452737734
  Basis Set: 6-31G*
    Blend: 6-31G*
  Basis Set: (6-31G* AUX)
  @DF-RKS Final Energy:  -381.46460579199459
    Total Energy =                       -381.4646057919945292
  @DF-RKS Final Energy:  -381.46465129907676
    Total Energy =                       -381.4646512990768201
   => B3LYP Composite Functional <=
  Basis Set: (6-31G* AUX)
    Blend: CC-PVDZ-JKFIT
  @DF-RKS Final Energy:  -381.46465536118279
    Total Energy =                       -381.4646553611828494
  Basis Set: 6-31G*
    Blend: 6-31G*
  Basis Set: (6-31G* AUX)
    Blend: CC-PVDZ-JKFIT
   => B3LYP Composite Functional <=
  Charge       = 1
  Multiplicity = 1
  Basis Set: 6-31G*
    Blend: 6-31G*
   => B3LYP Composite Functional <=
  Basis Set: (6-31G* AUX)
    Blend: CC-PVDZ-JKFIT

    Orbital Energies (a.u.)
    -----------------------

    Doubly Occupied:

       1A    -14.576165     2A    -14.576045     3A    -10.502885
       4A    -10.368075     5A    -10.348969     6A    -10.348862
       7A    -10.333790     8A    -10.333559     9A    -10.332880
      10A     -1.190470    11A     -1.099587    12A     -1.008811
      13A     -0.921993    14A     -0.895081    15A     -0.845544
      16A     -0.788093    17A     -0.765744    18A     -0.754644
      19A     -0.728111    20A     -0.691750    21A     -0.666886
      22A     -0.623534    23A     -0.615887    24A     -0.577721
      25A     -0.573089    26A     -0.567283    27A     -0.515481
      28A     -0.496614    29A     -0.491588    30A     -0.479912
      31A     -0.404620    32A     -0.398287

  @DF-RKS Final Energy:  -381.46465574992459

   => Energetics <=

    Nuclear Repulsion Energy =            416.2507000165596764
    One-Electron Energy =               -1327.8406676714814694
    Two-Electron Energy =                 574.5410507565612761
    DFT Exchange-Correlation Energy =     -44.4040572215641305
    Empirical Dispersion Energy =          -0.0116816300000000
    PCM Polarization Energy =               0.0000000000000000
    EFP Energy =                            0.0000000000000000
    Total Energy =                       -381.4646557499246455
    Molecular point group: c1
  Basis Set: 6-31G*
    Blend: 6-31G*
  Basis Set: (6-31G* AUX)
    Blend: CC-PVDZ-JKFIT
   => B3LYP Composite Functional <=

  -Total Gradient:
     Atom            X                  Y                   Z
    ------   -----------------  -----------------  -----------------
       1       -0.004936618873    -0.001193167379    -0.000075398700
       2        0.003150446228    -0.000139220785     0.000061182796
       3        0.000016715424     0.000010311683    -0.000009577638
       4       -0.000001001259    -0.000008261320    -0.000006454749
       5       -0.000019397396     0.000001358347     0.000008975994
       6        0.000011002727     0.000013135208    -0.000034040465
       7        0.002505792957     0.004493347288     0.000049195768
       8       -0.000006950281    -0.000002227793     0.000001584127
       9       -0.000005655333    -0.000002535904     0.000002732343
      10        0.000002144168     0.000000250149    -0.000000322802
      11        0.000006213711    -0.000000581438    -0.000001045345
      12        0.000007950432    -0.000002932162     0.000002881730
      13       -0.000712200776    -0.003206849955    -0.000010462265
      14       -0.000015864537     0.000042401269     0.000026485163
      15        0.000002153253    -0.000008185367    -0.000010429067
      16        0.000017186213     0.000001721183    -0.000006697782
      17       -0.000009568055     0.000005929514    -0.000005138335
      18       -0.000004791226    -0.000001300308    -0.000005656512

  **** Optimization is complete! (in 6 steps) ****
    Final optimized geometry and variables:
    Molecular point group: c1

    Geometry (in Angstrom), charge = 1, multiplicity = 1:

    C           -0.040363850707     0.010431109352    -0.173952847388
    C            0.001425460681     1.228174159617     0.520113121308
    C            0.027841504113     1.212927577061     1.913983504477
    C            0.015747105166    -0.003244126932     2.601820219543
    C           -0.013738219488    -1.212857056350     1.902425236435
    C           -0.028254105646    -1.214869217507     0.508552871971
    C           -0.010891667344     0.013906985380    -1.656755318057
    H            0.015672567524     2.170704739464    -0.019919018281
    H            0.061591055079     2.149996478957     2.460439884340
    H            0.033280747547    -0.008759889352     3.687275872547
    H           -0.021400766317    -2.155431533273     2.440379496267
    H           -0.046762427973    -2.152091403587    -0.040457784268
    N           -1.125275560874     0.267630135872    -2.324907272549
    N            1.120413594111    -0.282672488159    -2.277063672743
    H            1.206845564732    -0.346871385364    -3.286227650506
    H            1.955011364214    -0.446433277175    -1.727537051504
    H           -1.977069905643     0.453162608417    -1.809713111712
    H           -1.174069459175     0.316295583580    -3.337457479880

  Mulliken Charges: (a.u.)
   Center  Symbol    Alpha    Beta     Spin     Total
       1     C     2.99250  2.99250  0.00000  0.01499
       2     C     3.07105  3.07105  0.00000 -0.14209
       3     C     3.06248  3.06248  0.00000 -0.12495
       4     C     3.05360  3.05360  0.00000 -0.10721
       5     C     3.06304  3.06304  0.00000 -0.12609
       6     C     3.07129  3.07129  0.00000 -0.14257
       7     C     2.74676  2.74676  0.00000  0.50648
       8     H     0.41356  0.41356  0.00000  0.17289
       9     H     0.40732  0.40732  0.00000  0.18537
      10     H     0.40668  0.40668  0.00000  0.18663
      11     H     0.40730  0.40730  0.00000  0.18541
      12     H     0.41363  0.41363  0.00000  0.17273
      13     N     3.84482  3.84482  0.00000 -0.68964
      14     N     3.84497  3.84497  0.00000 -0.68995
      15     H     0.30500  0.30500  0.00000  0.39000
      16     H     0.29556  0.29556  0.00000  0.40889
      17     H     0.29536  0.29536  0.00000  0.40928
      18     H     0.30508  0.30508  0.00000  0.38984

   Total alpha = 32.00000, Total beta = 32.00000, Total charge =  1.00000

*** Psi4 exiting successfully. Buy a developer a beer!
