                               Psi4 1.1 release

  ==> Input File <==

--------------------------------------------------------------------------
set {
	reference rks
	basis 6-31G*
}

set_num_threads( 8 )
memory 2 gb

molecule MOL {
1 1

C	 -0.000000	 -0.000000	 -0.191639
C	 -1.194090	 -0.249733	 0.510391
C	 -1.186860	 -0.253046	 1.901670
C	 -0.000000	 0.000000	 2.596333
C	 1.186860	 0.253046	 1.901670
C	 1.194090	 0.249732	 0.510391
C	 -0.000000	 -0.000000	 -1.658508
H	 -2.108833	 -0.488979	 -0.024627
H	 -2.103023	 -0.462656	 2.444112
H	 -0.000000	 0.000000	 3.681982
H	 2.103022	 0.462656	 2.444112
H	 2.108833	 0.488979	 -0.024627
N	 -0.712589	 -0.905950	 -2.322235
N	 0.712590	 0.905950	 -2.322235
H	 0.673432	 1.006470	 -3.329771
H	 1.377190	 1.485970	 -1.827091
H	 -1.377189	 -1.485970	 -1.827091
H	 -0.673431	 -1.006470	 -3.329771

	symmetry c1
}
set optking { dynamic_level = 1 }
set optking {
	frozen_dihedral = ("
		2 1 7 13
	")
}

ee,wfn = optimize('b3lyp-d3', return_wfn=True)
oeprop( wfn, 'DIPOLE', 'QUADRUPOLE', 'MULLIKEN_CHARGES')
f=open( 'psi4out.xyz', 'w' )
f.write( "18  " )
f.write( str(ee) + "\n" )
f.write( MOL.save_string_xyz() )
f.close()
--------------------------------------------------------------------------

    Molecular point group: c1
  Charge       = 1
  Multiplicity = 1
  Basis Set: 6-31G*
    Blend: 6-31G*
   => B3LYP Composite Functional <=
  Basis Set: (6-31G* AUX)
    Blend: CC-PVDZ-JKFIT
  @DF-RKS Final Energy:  -381.46525558659204
    Total Energy =                       -381.4652555865920363
    Molecular point group: c1
  Basis Set: 6-31G*
    Blend: 6-31G*
  Basis Set: (6-31G* AUX)
    Blend: CC-PVDZ-JKFIT
   => B3LYP Composite Functional <=
  Basis Set: 6-31G*
    Blend: 6-31G*
   => B3LYP Composite Functional <=
  Basis Set: (6-31G* AUX)
    Blend: CC-PVDZ-JKFIT
  @DF-RKS Final Energy:  -381.46875961704848
    Total Energy =                       -381.4687596170484767
  Basis Set: 6-31G*
    Blend: 6-31G*
  Basis Set: (6-31G* AUX)
  @DF-RKS Final Energy:  -381.47014805870975
    Total Energy =                       -381.4701480587097535
  @DF-RKS Final Energy:  -381.47042601024339
    Total Energy =                       -381.4704260102433295
  @DF-RKS Final Energy:  -381.47043967208447
    Total Energy =                       -381.4704396720845239
   => B3LYP Composite Functional <=
  Basis Set: (6-31G* AUX)
    Blend: CC-PVDZ-JKFIT
  @DF-RKS Final Energy:  -381.47044799595938
    Total Energy =                       -381.4704479959593755
  Basis Set: 6-31G*
    Blend: 6-31G*
  Basis Set: (6-31G* AUX)
    Blend: CC-PVDZ-JKFIT
   => B3LYP Composite Functional <=
  Charge       = 1
  Multiplicity = 1
  Basis Set: 6-31G*
    Blend: 6-31G*
   => B3LYP Composite Functional <=
  Basis Set: (6-31G* AUX)
    Blend: CC-PVDZ-JKFIT

    Orbital Energies (a.u.)
    -----------------------

    Doubly Occupied:

       1A    -14.568515     2A    -14.568504     3A    -10.497344
       4A    -10.372753     5A    -10.355667     6A    -10.355559
       7A    -10.342367     8A    -10.340005     9A    -10.339942
      10A     -1.184149    11A     -1.092447    12A     -1.013905
      13A     -0.926291    14A     -0.901726    15A     -0.845263
      16A     -0.785810    17A     -0.772918    18A     -0.742625
      19A     -0.732397    20A     -0.688910    21A     -0.668985
      22A     -0.624766    23A     -0.617932    24A     -0.585886
      25A     -0.578604    26A     -0.572437    27A     -0.518266
      28A     -0.504874    29A     -0.497661    30A     -0.473215
      31A     -0.411290    32A     -0.405264

  @DF-RKS Final Energy:  -381.47044849624979

   => Energetics <=

    Nuclear Repulsion Energy =            416.9194219305514366
    One-Electron Energy =               -1329.0592742448448007
    Two-Electron Energy =                 575.0872731269869291
    DFT Exchange-Correlation Energy =     -44.4059091189432280
    Empirical Dispersion Energy =          -0.0119601900000000
    PCM Polarization Energy =               0.0000000000000000
    EFP Energy =                            0.0000000000000000
    Total Energy =                       -381.4704484962497304
    Molecular point group: c1
  Basis Set: 6-31G*
    Blend: 6-31G*
  Basis Set: (6-31G* AUX)
    Blend: CC-PVDZ-JKFIT
   => B3LYP Composite Functional <=

  -Total Gradient:
     Atom            X                  Y                   Z
    ------   -----------------  -----------------  -----------------
       1        0.000545509608    -0.001420094450    -0.000036427069
       2       -0.000172520000     0.000794347968     0.000007491573
       3        0.000000351749     0.000014831099    -0.000002196930
       4        0.000002075026     0.000006064216    -0.000009132211
       5       -0.000001505151    -0.000009487827     0.000002587818
       6        0.000011895154    -0.000018823635     0.000001812285
       7       -0.001069400028     0.001200652139     0.000045727173
       8        0.000007378001    -0.000006073039    -0.000006715954
       9        0.000000366434     0.000000500291    -0.000000007628
      10        0.000000662612    -0.000003473473    -0.000000014092
      11       -0.000000765137     0.000002559814    -0.000000014721
      12       -0.000004225567     0.000001457357    -0.000003704942
      13        0.000698442907    -0.000572129196    -0.000000979555
      14       -0.000028830454     0.000042242803     0.000025156358
      15        0.000020311696    -0.000017405982    -0.000008048085
      16       -0.000001620266    -0.000038529052    -0.000025372146
      17        0.000001316751     0.000013743004    -0.000015062631
      18       -0.000008613675     0.000010719906     0.000004559517

  **** Optimization is complete! (in 7 steps) ****
    Final optimized geometry and variables:
    Molecular point group: c1

    Geometry (in Angstrom), charge = 1, multiplicity = 1:

    C            0.001173194682    -0.007176821818    -0.191299577510
    C           -1.194461625479    -0.250283089267     0.509659720723
    C           -1.189380750619    -0.239969262741     1.901150993219
    C            0.000008138789     0.002814220071     2.595042105108
    C            1.189492836183     0.242982571512     1.900182085765
    C            1.195082485501     0.246814805272     0.508736939784
    C           -0.002444593332     0.001113605580    -1.658653143666
    H           -2.126872696518    -0.400735578589    -0.027260308516
    H           -2.113226270883    -0.410999351180     2.444136006389
    H           -0.000128948632     0.005693574647     3.680695651240
    H            2.112755332051     0.418819778577     2.442628635079
    H            2.127306194054     0.396991270048    -0.028563245372
    N           -0.725427555929    -0.895376323680    -2.323001239297
    N            0.726183364330     0.897147395829    -2.317397782649
    H            0.834620918781     0.886406798778    -3.324963143260
    H            1.151683106834     1.665727518233    -1.815724986647
    H           -1.152908519172    -1.665232719911    -1.824918499509
    H           -0.837416221965    -0.877176634596    -3.330048671986

  Mulliken Charges: (a.u.)
   Center  Symbol    Alpha    Beta     Spin     Total
       1     C     2.96008  2.96008  0.00000  0.07985
       2     C     3.08110  3.08110  0.00000 -0.16219
       3     C     3.06242  3.06242  0.00000 -0.12485
       4     C     3.05159  3.05159  0.00000 -0.10317
       5     C     3.06265  3.06265  0.00000 -0.12531
       6     C     3.08137  3.08137  0.00000 -0.16275
       7     C     2.72412  2.72412  0.00000  0.55177
       8     H     0.41402  0.41402  0.00000  0.17196
       9     H     0.40554  0.40554  0.00000  0.18892
      10     H     0.40406  0.40406  0.00000  0.19187
      11     H     0.40554  0.40554  0.00000  0.18892
      12     H     0.41394  0.41394  0.00000  0.17212
      13     N     3.86156  3.86156  0.00000 -0.72313
      14     N     3.86199  3.86199  0.00000 -0.72399
      15     H     0.30565  0.30565  0.00000  0.38871
      16     H     0.29941  0.29941  0.00000  0.40118
      17     H     0.29928  0.29928  0.00000  0.40143
      18     H     0.30567  0.30567  0.00000  0.38865

   Total alpha = 32.00000, Total beta = 32.00000, Total charge =  1.00000

*** Psi4 exiting successfully. Buy a developer a beer!
