                               Psi4 1.1 release

  ==> Input File <==

--------------------------------------------------------------------------
set {
	reference rks
	basis 6-31G*
}

set_num_threads( 8 )
memory 2 gb

molecule MOL {
1 1

C	 -0.000000	 -0.000000	 -0.191639
C	 -1.158979	 0.380770	 0.510391
C	 -1.154374	 0.374286	 1.901670
C	 -0.000000	 0.000000	 2.596333
C	 1.154374	 -0.374286	 1.901670
C	 1.158979	 -0.380771	 0.510391
C	 -0.000000	 -0.000000	 -1.658508
H	 -2.070793	 0.630949	 -0.024627
H	 -2.052599	 0.650840	 2.444112
H	 -0.000000	 0.000000	 3.681982
H	 2.052599	 -0.650839	 2.444112
H	 2.070792	 -0.630949	 -0.024627
N	 -0.712589	 -0.905950	 -2.322235
N	 0.712590	 0.905950	 -2.322235
H	 0.673432	 1.006470	 -3.329771
H	 1.377190	 1.485970	 -1.827091
H	 -1.377189	 -1.485970	 -1.827091
H	 -0.673431	 -1.006470	 -3.329771

	symmetry c1
}
set optking { dynamic_level = 1 }
set optking {
	frozen_dihedral = ("
		2 1 7 13
	")
}

ee,wfn = optimize('b3lyp-d3', return_wfn=True)
oeprop( wfn, 'DIPOLE', 'QUADRUPOLE', 'MULLIKEN_CHARGES')
f=open( 'psi4out.xyz', 'w' )
f.write( "18  " )
f.write( str(ee) + "\n" )
f.write( MOL.save_string_xyz() )
f.close()
--------------------------------------------------------------------------

    Molecular point group: c1
  Charge       = 1
  Multiplicity = 1
  Basis Set: 6-31G*
    Blend: 6-31G*
   => B3LYP Composite Functional <=
  Basis Set: (6-31G* AUX)
    Blend: CC-PVDZ-JKFIT
  @DF-RKS Final Energy:  -381.46261569235514
    Total Energy =                       -381.4626156923552003
    Molecular point group: c1
  Basis Set: 6-31G*
    Blend: 6-31G*
  Basis Set: (6-31G* AUX)
    Blend: CC-PVDZ-JKFIT
   => B3LYP Composite Functional <=
  Basis Set: 6-31G*
    Blend: 6-31G*
   => B3LYP Composite Functional <=
  Basis Set: (6-31G* AUX)
    Blend: CC-PVDZ-JKFIT
  @DF-RKS Final Energy:  -381.46544479492007
    Total Energy =                       -381.4654447949200744
  Basis Set: 6-31G*
    Blend: 6-31G*
  Basis Set: (6-31G* AUX)
  @DF-RKS Final Energy:  -381.46618172881847
    Total Energy =                       -381.4661817288184693
  @DF-RKS Final Energy:  -381.46625905148784
    Total Energy =                       -381.4662590514878389
   => B3LYP Composite Functional <=
  Basis Set: (6-31G* AUX)
    Blend: CC-PVDZ-JKFIT
  @DF-RKS Final Energy:  -381.46626472545080
    Total Energy =                       -381.4662647254507419
  Basis Set: 6-31G*
    Blend: 6-31G*
  Basis Set: (6-31G* AUX)
    Blend: CC-PVDZ-JKFIT
   => B3LYP Composite Functional <=
  Charge       = 1
  Multiplicity = 1
  Basis Set: 6-31G*
    Blend: 6-31G*
   => B3LYP Composite Functional <=
  Basis Set: (6-31G* AUX)
    Blend: CC-PVDZ-JKFIT

    Orbital Energies (a.u.)
    -----------------------

    Doubly Occupied:

       1A    -14.574148     2A    -14.574024     3A    -10.501162
       4A    -10.369165     5A    -10.350789     6A    -10.350401
       7A    -10.335818     8A    -10.335293     9A    -10.334998
      10A     -1.188674    11A     -1.097742    12A     -1.010155
      13A     -0.923113    14A     -0.896791    15A     -0.845176
      16A     -0.787403    17A     -0.767563    18A     -0.751823
      19A     -0.728924    20A     -0.690633    21A     -0.667557
      22A     -0.622556    23A     -0.617902    24A     -0.579030
      25A     -0.574485    26A     -0.568574    27A     -0.516480
      28A     -0.498683    29A     -0.493132    30A     -0.478030
      31A     -0.406480    32A     -0.400133

  @DF-RKS Final Energy:  -381.46626615603628

   => Energetics <=

    Nuclear Repulsion Energy =            416.4957454988320933
    One-Electron Energy =               -1328.3037507170395202
    Two-Electron Energy =                 574.7579770874197038
    DFT Exchange-Correlation Energy =     -44.4044416052485786
    Empirical Dispersion Energy =          -0.0117964200000000
    PCM Polarization Energy =               0.0000000000000000
    EFP Energy =                            0.0000000000000000
    Total Energy =                       -381.4662661560362835
    Molecular point group: c1
  Basis Set: 6-31G*
    Blend: 6-31G*
  Basis Set: (6-31G* AUX)
    Blend: CC-PVDZ-JKFIT
   => B3LYP Composite Functional <=

  -Total Gradient:
     Atom            X                  Y                   Z
    ------   -----------------  -----------------  -----------------
       1       -0.000592707915    -0.007710066047    -0.000205994484
       2        0.001541945965     0.004385417193     0.000120612091
       3       -0.000014027302    -0.000025161669    -0.000010743292
       4        0.000008611453     0.000001379659    -0.000007531820
       5        0.000018859790     0.000032299976     0.000010568443
       6       -0.000033207374    -0.000069884478    -0.000037269891
       7       -0.004680290994     0.006491677208     0.000160566760
       8       -0.000004118398    -0.000016740474     0.000002154776
       9        0.000001953521     0.000002423298    -0.000000099304
      10       -0.000001800221    -0.000000782646     0.000002363261
      11       -0.000001424348     0.000000770740    -0.000000638015
      12        0.000011030853     0.000015953859     0.000004560772
      13        0.003746485559    -0.003080965344    -0.000057730512
      14       -0.000042663983    -0.000000249393     0.000051900446
      15        0.000018540372    -0.000015521182    -0.000003877389
      16        0.000018544090    -0.000000231044    -0.000019395852
      17       -0.000002176398    -0.000012244077    -0.000014459504
      18       -0.000003501956    -0.000006803062     0.000008089165

  **** Optimization is complete! (in 6 steps) ****
    Final optimized geometry and variables:
    Molecular point group: c1

    Geometry (in Angstrom), charge = 1, multiplicity = 1:

    C           -0.022955583873    -0.043200490055    -0.186778915705
    C           -1.178329587028     0.341302509762     0.510999193386
    C           -1.152751773457     0.370333767214     1.904132528492
    C            0.014073972500     0.023148896377     2.590301736470
    C            1.166974993296    -0.342956599725     1.889402050872
    C            1.161980081591    -0.359875745256     0.496300089278
    C           -0.018019062132     0.001488023395    -1.664350656341
    H           -2.079227318643     0.620777112295    -0.028071397809
    H           -2.040368751140     0.670290707059     2.451800283852
    H            0.027103763693     0.042984046383     3.675675393606
    H            2.070903619799    -0.611465379613     2.426667707317
    H            2.055217322892    -0.641774101196    -0.054012869349
    N           -0.748913973826    -0.871764794055    -2.342336036144
    N            0.768824275425     0.871866420032    -2.280329902085
    H            0.882591114679     0.907517259820    -3.287846365391
    H            1.274226880346     1.555434820401    -1.730520566178
    H           -1.284103861152    -1.565996283373    -1.835664460093
    H           -0.837364445590    -0.862973867582    -3.352990670300

  Mulliken Charges: (a.u.)
   Center  Symbol    Alpha    Beta     Spin     Total
       1     C     2.98575  2.98575  0.00000  0.02851
       2     C     3.07270  3.07270  0.00000 -0.14540
       3     C     3.06194  3.06194  0.00000 -0.12388
       4     C     3.05310  3.05310  0.00000 -0.10620
       5     C     3.06321  3.06321  0.00000 -0.12641
       6     C     3.07428  3.07428  0.00000 -0.14855
       7     C     2.74219  2.74219  0.00000  0.51562
       8     H     0.41336  0.41336  0.00000  0.17328
       9     H     0.40683  0.40683  0.00000  0.18634
      10     H     0.40598  0.40598  0.00000  0.18803
      11     H     0.40680  0.40680  0.00000  0.18639
      12     H     0.41345  0.41345  0.00000  0.17311
      13     N     3.84807  3.84807  0.00000 -0.69615
      14     N     3.84900  3.84900  0.00000 -0.69800
      15     H     0.30518  0.30518  0.00000  0.38964
      16     H     0.29659  0.29659  0.00000  0.40682
      17     H     0.29621  0.29621  0.00000  0.40758
      18     H     0.30537  0.30537  0.00000  0.38927

   Total alpha = 32.00000, Total beta = 32.00000, Total charge =  1.00000

*** Psi4 exiting successfully. Buy a developer a beer!
