                               Psi4 1.1 release

  ==> Input File <==

--------------------------------------------------------------------------
set_num_threads(1)
set_memory(3145728000)

set { reference rks }
set { basis 6-31G* }

molecule MOL {
    1 1
    noreorient
    nocom
    symmetry c1
    C    0.000000   0.000000  -0.177864
    C    0.036678   1.219374   0.524165
    C    0.031764   1.213119   1.915444
    C   -0.000000  -0.000000   2.610107
    C   -0.031764  -1.213119   1.915444
    C   -0.036677  -1.219374   0.524165
    C    0.000000  -0.000000  -1.644734
    H    0.018170   2.164705  -0.010853
    H    0.042402   2.152895   2.457886
    H   -0.000000  -0.000000   3.695756
    H   -0.042402  -2.152895   2.457886
    H   -0.018170  -2.164705  -0.010853
    N   -0.165932   1.140612  -2.308461
    N    0.165933  -1.140612  -2.308460
    H    0.265776  -1.181463  -3.315997
    H    0.128638  -2.021932  -1.813316
    H   -0.128637   2.021932  -1.813317
    H   -0.265776   1.181463  -3.315997
}

set optking { frozen_dihedral = (" 2 1 7 13 ") }

set optking { dynamic_level = 1
 geom_maxiter = 250
 print_trajectory_xyz_file = True }

energy, wfn = optimize('B3LYP-D3', return_wfn=True)

import os
os.chdir(os.environ['HTMD_PSI4_WORKDIR'])

oeprop(wfn, 'DIPOLE', 'QUADRUPOLE', 'MULLIKEN_CHARGES')

with open('psi4out.xyz', 'w') as f:
    f.write('18 ' )
    f.write('%.12f\n' % energy)
    f.write(MOL.save_string_xyz())
--------------------------------------------------------------------------

    Molecular point group: c1
  Charge       = 1
  Multiplicity = 1
  Basis Set: 6-31G*
    Blend: 6-31G*
   => B3LYP Composite Functional <=
  Basis Set: (6-31G* AUX)
    Blend: CC-PVDZ-JKFIT
  @DF-RKS Final Energy:  -381.46304777964065
    Total Energy =                       -381.4630477796407035
    Molecular point group: c1
  Basis Set: 6-31G*
    Blend: 6-31G*
  Basis Set: (6-31G* AUX)
    Blend: CC-PVDZ-JKFIT
   => B3LYP Composite Functional <=
  Basis Set: 6-31G*
    Blend: 6-31G*
   => B3LYP Composite Functional <=
  Basis Set: (6-31G* AUX)
    Blend: CC-PVDZ-JKFIT
  @DF-RKS Final Energy:  -381.46517468329967
    Total Energy =                       -381.4651746832996650
  Basis Set: 6-31G*
    Blend: 6-31G*
  Basis Set: (6-31G* AUX)
  @DF-RKS Final Energy:  -381.46623506550327
    Total Energy =                       -381.4662350655032128
  @DF-RKS Final Energy:  -381.46677392733011
    Total Energy =                       -381.4667739273300526
  @DF-RKS Final Energy:  -381.46741204959642
    Total Energy =                       -381.4674120495964758
  @DF-RKS Final Energy:  -381.46753012000534
    Total Energy =                       -381.4675301200052786
  @DF-RKS Final Energy:  -381.46754563369257
    Total Energy =                       -381.4675456336926231
  @DF-RKS Final Energy:  -381.46754894684142
    Total Energy =                       -381.4675489468414185
   => B3LYP Composite Functional <=
  Basis Set: (6-31G* AUX)
    Blend: CC-PVDZ-JKFIT
  @DF-RKS Final Energy:  -381.46755005092928
    Total Energy =                       -381.4675500509293329
  Basis Set: 6-31G*
    Blend: 6-31G*
  Basis Set: (6-31G* AUX)
    Blend: CC-PVDZ-JKFIT
   => B3LYP Composite Functional <=
  Charge       = 1
  Multiplicity = 1
  Basis Set: 6-31G*
    Blend: 6-31G*
   => B3LYP Composite Functional <=
  Basis Set: (6-31G* AUX)
    Blend: CC-PVDZ-JKFIT

    Orbital Energies (a.u.)
    -----------------------

    Doubly Occupied:

       1A    -14.565656     2A    -14.565372     3A    -10.497665
       4A    -10.376715     5A    -10.360166     6A    -10.359813
       7A    -10.346277     8A    -10.342648     9A    -10.342605
      10A     -1.182974    11A     -1.089386    12A     -1.016661
      13A     -0.928535    14A     -0.905241    15A     -0.847456
      16A     -0.786114    17A     -0.776096    18A     -0.737532
      19A     -0.736338    20A     -0.688104    21A     -0.669372
      22A     -0.630635    23A     -0.611386    24A     -0.597420
      25A     -0.581737    26A     -0.576295    27A     -0.518401
      28A     -0.509135    29A     -0.500635    30A     -0.471425
      31A     -0.413487    32A     -0.407836

  @DF-RKS Final Energy:  -381.46755011294209

   => Energetics <=

    Nuclear Repulsion Energy =            416.7193308176968003
    One-Electron Energy =               -1328.5473668361485124
    Two-Electron Energy =                 574.7792290645960520
    DFT Exchange-Correlation Energy =     -44.4071543190864801
    Empirical Dispersion Energy =          -0.0115888400000000
    PCM Polarization Energy =               0.0000000000000000
    EFP Energy =                            0.0000000000000000
    Total Energy =                       -381.4675501129421491
    Molecular point group: c1
  Basis Set: 6-31G*
    Blend: 6-31G*
  Basis Set: (6-31G* AUX)
    Blend: CC-PVDZ-JKFIT
   => B3LYP Composite Functional <=

  -Total Gradient:
     Atom            X                  Y                   Z
    ------   -----------------  -----------------  -----------------
       1        0.009644681845     0.000286273921    -0.000344260765
       2       -0.004861926286     0.000064555829     0.000166274070
       3        0.000001429351     0.000007468009    -0.000005113917
       4        0.000005938492    -0.000001882302     0.000005519828
       5       -0.000003822423    -0.000010109316    -0.000003435062
       6       -0.000040697723     0.000003127698     0.000002375195
       7       -0.009850304901    -0.001179181817     0.000360699016
       8        0.000001471034    -0.000000122700    -0.000010148770
       9       -0.000003160081    -0.000001825638     0.000002038880
      10       -0.000002282558    -0.000000075029     0.000000983703
      11        0.000003756550     0.000002189539     0.000003602022
      12        0.000008653683     0.000000935973     0.000002618050
      13        0.005080341787     0.000842484187    -0.000178190876
      14        0.000038766420    -0.000025173203    -0.000002823482
      15       -0.000004127543     0.000000458301     0.000006597445
      16       -0.000018108621     0.000025670403    -0.000014775275
      17        0.000001673859    -0.000009715606    -0.000001042356
      18       -0.000003179272    -0.000004227150     0.000003809402

  **** Optimization is complete! (in 10 steps) ****
    Final optimized geometry and variables:
    Molecular point group: c1

    Geometry (in Angstrom), charge = 1, multiplicity = 1:

    C            0.046223887706    -0.001533706961    -0.176433008567
    C            0.088618953642     1.212857840696     0.537877354598
    C            0.069254269198     1.209883210610     1.927591373614
    C           -0.008608931150     0.000864258992     2.624966226552
    C           -0.075133442855    -1.208454315223     1.927598291688
    C           -0.062034842915    -1.212229086789     0.537574343303
    C           -0.006442743091    -0.003461937030    -1.643608706019
    H            0.205342066854     2.162881596543     0.025101568234
    H            0.122492182934     2.149800233769     2.467036812439
    H           -0.023759722807     0.001765255113     3.710465451472
    H           -0.155934163597    -2.146766059375     2.466425537336
    H           -0.181603208840    -2.161040755405     0.023236284185
    N           -0.214091090738     1.125607368962    -2.321196681082
    N            0.226586476005    -1.122030009316    -2.328978886970
    H            0.148189513191    -1.165597278478    -3.337559855861
    H            0.585077784222    -1.946807243761    -1.868941785257
    H           -0.579129305698     1.945437551182    -1.857205203098
    H           -0.185044682060     1.158823076472    -3.332948116567

  Mulliken Charges: (a.u.)
   Center  Symbol    Alpha    Beta     Spin     Total
       1     C     2.93472  2.93472  0.00000  0.13056
       2     C     3.08767  3.08767  0.00000 -0.17534
       3     C     3.06134  3.06134  0.00000 -0.12269
       4     C     3.05136  3.05136  0.00000 -0.10273
       5     C     3.06121  3.06121  0.00000 -0.12241
       6     C     3.08621  3.08621  0.00000 -0.17242
       7     C     2.70846  2.70846  0.00000  0.58308
       8     H     0.41813  0.41813  0.00000  0.16373
       9     H     0.40499  0.40499  0.00000  0.19002
      10     H     0.40280  0.40280  0.00000  0.19441
      11     H     0.40496  0.40496  0.00000  0.19007
      12     H     0.41885  0.41885  0.00000  0.16229
      13     N     3.87327  3.87327  0.00000 -0.74654
      14     N     3.87227  3.87227  0.00000 -0.74453
      15     H     0.30590  0.30590  0.00000  0.38820
      16     H     0.30034  0.30034  0.00000  0.39931
      17     H     0.30139  0.30139  0.00000  0.39722
      18     H     0.30612  0.30612  0.00000  0.38776

   Total alpha = 32.00000, Total beta = 32.00000, Total charge =  1.00000

*** Psi4 exiting successfully. Buy a developer a beer!
