                               Psi4 1.1 release

  ==> Input File <==

--------------------------------------------------------------------------
set {
	reference rks
	basis 6-31G*
}

set_num_threads( 8 )
memory 2 gb

molecule MOL {
1 1

C	 -0.000000	 -0.000000	 -0.191639
C	 -0.453291	 1.132584	 0.510391
C	 -0.455298	 1.124888	 1.901670
C	 -0.000000	 0.000000	 2.596333
C	 0.455298	 -1.124888	 1.901670
C	 0.453290	 -1.132584	 0.510391
C	 -0.000000	 -0.000000	 -1.658508
H	 -0.847745	 1.991885	 -0.024627
H	 -0.820813	 1.990734	 2.444112
H	 -0.000000	 0.000000	 3.681982
H	 0.820814	 -1.990733	 2.444112
H	 0.847745	 -1.991885	 -0.024627
N	 -0.712589	 -0.905950	 -2.322235
N	 0.712590	 0.905950	 -2.322235
H	 0.673432	 1.006470	 -3.329771
H	 1.377190	 1.485970	 -1.827091
H	 -1.377189	 -1.485970	 -1.827091
H	 -0.673431	 -1.006470	 -3.329771

	symmetry c1
}
set optking { dynamic_level = 1 }
set optking {
	frozen_dihedral = ("
		2 1 7 13
	")
}

ee,wfn = optimize('b3lyp-d3', return_wfn=True)
oeprop( wfn, 'DIPOLE', 'QUADRUPOLE', 'MULLIKEN_CHARGES')
f=open( 'psi4out.xyz', 'w' )
f.write( "18  " )
f.write( str(ee) + "\n" )
f.write( MOL.save_string_xyz() )
f.close()
--------------------------------------------------------------------------

    Molecular point group: c1
  Charge       = 1
  Multiplicity = 1
  Basis Set: 6-31G*
    Blend: 6-31G*
   => B3LYP Composite Functional <=
  Basis Set: (6-31G* AUX)
    Blend: CC-PVDZ-JKFIT
  @DF-RKS Final Energy:  -381.46715409910780
    Total Energy =                       -381.4671540991078587
    Molecular point group: c1
  Basis Set: 6-31G*
    Blend: 6-31G*
  Basis Set: (6-31G* AUX)
    Blend: CC-PVDZ-JKFIT
   => B3LYP Composite Functional <=
  Basis Set: 6-31G*
    Blend: 6-31G*
   => B3LYP Composite Functional <=
  Basis Set: (6-31G* AUX)
    Blend: CC-PVDZ-JKFIT
  @DF-RKS Final Energy:  -381.46797603531229
    Total Energy =                       -381.4679760353123470
  Basis Set: 6-31G*
    Blend: 6-31G*
  Basis Set: (6-31G* AUX)
  @DF-RKS Final Energy:  -381.46815138919891
    Total Energy =                       -381.4681513891989653
  @DF-RKS Final Energy:  -381.46816980922415
    Total Energy =                       -381.4681698092240936
   => B3LYP Composite Functional <=
  Basis Set: (6-31G* AUX)
    Blend: CC-PVDZ-JKFIT
  @DF-RKS Final Energy:  -381.46817294268641
    Total Energy =                       -381.4681729426863512
  Basis Set: 6-31G*
    Blend: 6-31G*
  Basis Set: (6-31G* AUX)
    Blend: CC-PVDZ-JKFIT
   => B3LYP Composite Functional <=
  Charge       = 1
  Multiplicity = 1
  Basis Set: 6-31G*
    Blend: 6-31G*
   => B3LYP Composite Functional <=
  Basis Set: (6-31G* AUX)
    Blend: CC-PVDZ-JKFIT

    Orbital Energies (a.u.)
    -----------------------

    Doubly Occupied:

       1A    -14.571938     2A    -14.571826     3A    -10.499437
       4A    -10.370470     5A    -10.352831     6A    -10.352153
       7A    -10.338330     8A    -10.337191     9A    -10.337061
      10A     -1.186787    11A     -1.095728    12A     -1.011642
      13A     -0.924355    14A     -0.898717    15A     -0.844953
      16A     -0.786700    17A     -0.769705    18A     -0.748482
      19A     -0.730006    20A     -0.689652    21A     -0.668223
      22A     -0.621282    23A     -0.620316    24A     -0.581046
      25A     -0.576045    26A     -0.570053    27A     -0.517404
      28A     -0.501055    29A     -0.494901    30A     -0.476021
      31A     -0.408451    32A     -0.402202

  @DF-RKS Final Energy:  -381.46817320619130

   => Energetics <=

    Nuclear Repulsion Energy =            416.7540946630324470
    One-Electron Energy =               -1328.7874177326559675
    Two-Electron Energy =                 574.9820497217940556
    DFT Exchange-Correlation Energy =     -44.4049744883619084
    Empirical Dispersion Energy =          -0.0119253700000000
    PCM Polarization Energy =               0.0000000000000000
    EFP Energy =                            0.0000000000000000
    Total Energy =                       -381.4681732061913522
    Molecular point group: c1
  Basis Set: 6-31G*
    Blend: 6-31G*
  Basis Set: (6-31G* AUX)
    Blend: CC-PVDZ-JKFIT
   => B3LYP Composite Functional <=

  -Total Gradient:
     Atom            X                  Y                   Z
    ------   -----------------  -----------------  -----------------
       1        0.004291690932     0.003677894063    -0.000109809801
       2       -0.004022071884    -0.001670270451     0.000094593289
       3       -0.000010665737    -0.000009335424     0.000015940665
       4       -0.000015482505     0.000010813880    -0.000005801517
       5        0.000002443973    -0.000006714302    -0.000014112211
       6        0.000007099722     0.000009382571     0.000020863422
       7        0.003447060023    -0.004832907591    -0.000090507270
       8       -0.000005230361     0.000003387211    -0.000001087853
       9        0.000005192699     0.000001040530     0.000001966189
      10        0.000003092466     0.000001912907     0.000002961662
      11       -0.000002065355    -0.000001506100     0.000004359557
      12        0.000001840919    -0.000003042948    -0.000007735763
      13       -0.003674223684     0.002807285330     0.000088295470
      14       -0.000033692622     0.000009362326    -0.000002653130
      15        0.000012565544    -0.000005327541    -0.000000639360
      16        0.000016548056     0.000007564234     0.000010277721
      17       -0.000004141015     0.000005988285    -0.000001024284
      18       -0.000003691387     0.000007938383    -0.000008589496

  **** Optimization is complete! (in 6 steps) ****
    Final optimized geometry and variables:
    Molecular point group: c1

    Geometry (in Angstrom), charge = 1, multiplicity = 1:

    C            0.060617897279     0.009705587654    -0.188749479806
    C           -0.394130602611     1.147366016201     0.498772099822
    C           -0.438774651548     1.128955906793     1.890894094253
    C           -0.033837676498    -0.011755565122     2.589880244949
    C            0.405645188480    -1.147040536449     1.901965502549
    C            0.437887889546    -1.149429394825     0.509830965129
    C            0.024702647807    -0.003195395422    -1.661666584999
    H           -0.726232067003     2.024321010822    -0.049677339107
    H           -0.797105932576     2.000778393452     2.428735518206
    H           -0.065813854443    -0.018258808788     3.675038217520
    H            0.721379839199    -2.029296280699     2.449379853159
    H            0.785283782691    -2.026302432820    -0.029621016853
    N           -0.693068221459    -0.927886767262    -2.286143882272
    N            0.653072429527     0.950803300641    -2.336640584042
    H            0.586365143657     1.058798741190    -3.342759490033
    H            1.258356036536     1.592431199986    -1.840013759970
    H           -1.238989618302    -1.583031527482    -1.740852838409
    H           -0.707069161857    -1.035495998045    -3.294509209882

  Mulliken Charges: (a.u.)
   Center  Symbol    Alpha    Beta     Spin     Total
       1     C     2.97701  2.97701  0.00000  0.04599
       2     C     3.07383  3.07383  0.00000 -0.14767
       3     C     3.06215  3.06215  0.00000 -0.12430
       4     C     3.05246  3.05246  0.00000 -0.10493
       5     C     3.06310  3.06310  0.00000 -0.12620
       6     C     3.07839  3.07839  0.00000 -0.15678
       7     C     2.73633  2.73633  0.00000  0.52735
       8     H     0.41333  0.41333  0.00000  0.17335
       9     H     0.40627  0.40627  0.00000  0.18746
      10     H     0.40523  0.40523  0.00000  0.18953
      11     H     0.40630  0.40630  0.00000  0.18741
      12     H     0.41349  0.41349  0.00000  0.17302
      13     N     3.85209  3.85209  0.00000 -0.70418
      14     N     3.85413  3.85413  0.00000 -0.70826
      15     H     0.30546  0.30546  0.00000  0.38909
      16     H     0.29747  0.29747  0.00000  0.40506
      17     H     0.29751  0.29751  0.00000  0.40499
      18     H     0.30546  0.30546  0.00000  0.38909

   Total alpha = 32.00000, Total beta = 32.00000, Total charge =  1.00000

*** Psi4 exiting successfully. Buy a developer a beer!
