                               Psi4 1.1 release

  ==> Input File <==

--------------------------------------------------------------------------
set_num_threads( 8 )
memory 2.000000 gb

set { reference rks }
set { basis cc-pVDZ }

molecule MOL {
    0 1
    noreorient
    nocom
    symmetry c1
    O    1.050400   0.042900  -0.048100
    C    2.474100   0.047400  -0.029000
    C    3.002600  -1.068900  -0.932000
    N    4.287789  -1.590072  -0.469217
    H    0.760400   0.728400   0.578000
    H    2.809900  -0.097900   1.003200
    H    2.817400   1.026800  -0.378600
    H    3.101571  -0.699794  -1.959475
    H    2.269734  -1.882949  -0.967880
    H    4.996500  -0.861670  -0.550699
    H    4.583412  -2.338144  -1.096312
}

set optking { frozen_dihedral = (" 1 2 3 4 ") }

energy, wfn = energy('B3LYP-D3', return_wfn=True)

import os
os.chdir(os.environ['HTMD_PSI4_WORKDIR'])

oeprop(wfn, 'DIPOLE', 'QUADRUPOLE', 'MULLIKEN_CHARGES')

with open('psi4out.xyz', 'w') as f:
    f.write('11 ' )
    f.write('%.12f\n' % energy)
    f.write(MOL.save_string_xyz())
--------------------------------------------------------------------------

    Molecular point group: c1

    Geometry (in Angstrom), charge = 0, multiplicity = 1:

       Center              X                  Y                   Z               Mass
    ------------   -----------------  -----------------  -----------------  -----------------
           O          1.050400000000     0.042900000000    -0.048100000000    15.994914619560
           C          2.474100000000     0.047400000000    -0.029000000000    12.000000000000
           C          3.002600000000    -1.068900000000    -0.932000000000    12.000000000000
           N          4.287789000000    -1.590072000000    -0.469217000000    14.003074004780
           H          0.760400000000     0.728400000000     0.578000000000     1.007825032070
           H          2.809900000000    -0.097900000000     1.003200000000     1.007825032070
           H          2.817400000000     1.026800000000    -0.378600000000     1.007825032070
           H          3.101571000000    -0.699794000000    -1.959475000000     1.007825032070
           H          2.269734000000    -1.882949000000    -0.967880000000     1.007825032070
           H          4.996500000000    -0.861670000000    -0.550699000000     1.007825032070
           H          4.583412000000    -2.338144000000    -1.096312000000     1.007825032070

  Charge       = 0
  Multiplicity = 1
  Basis Set: CC-PVDZ
    Blend: CC-PVDZ
   => B3LYP Composite Functional <=
  Basis Set: (CC-PVDZ AUX)
    Blend: CC-PVDZ-JKFIT

    Orbital Energies (a.u.)
    -----------------------

    Doubly Occupied:

       1A    -19.125837     2A    -14.304998     3A    -10.222227
       4A    -10.201110     5A     -1.008329     6A     -0.876884
       7A     -0.712076     8A     -0.596734     9A     -0.506564
      10A     -0.477091    11A     -0.468162    12A     -0.404739
      13A     -0.388499    14A     -0.365774    15A     -0.322840
      16A     -0.258767    17A     -0.231201

  @DF-RKS Final Energy:  -210.38869486733861

   => Energetics <=

    Nuclear Repulsion Energy =            130.5413091847240707
    One-Electron Energy =                -544.0336008844743674
    Two-Electron Energy =                 226.5963488509592310
    DFT Exchange-Correlation Energy =     -23.4879670285475690
    Empirical Dispersion Energy =          -0.0047849900000000
    PCM Polarization Energy =               0.0000000000000000
    EFP Energy =                            0.0000000000000000
    Total Energy =                       -210.3886948673386144

  Mulliken Charges: (a.u.)
   Center  Symbol    Alpha    Beta     Spin     Total
       1     O     4.13996  4.13996  0.00000 -0.27992
       2     C     2.92944  2.92944  0.00000  0.14111
       3     C     2.98432  2.98432  0.00000  0.03136
       4     N     3.59159  3.59159  0.00000 -0.18318
       5     H     0.43056  0.43056  0.00000  0.13888
       6     H     0.49986  0.49986  0.00000  0.00029
       7     H     0.50363  0.50363  0.00000 -0.00727
       8     H     0.50254  0.50254  0.00000 -0.00508
       9     H     0.48764  0.48764  0.00000  0.02473
      10     H     0.46635  0.46635  0.00000  0.06730
      11     H     0.46410  0.46410  0.00000  0.07179

   Total alpha = 17.00000, Total beta = 17.00000, Total charge =  0.00000

*** Psi4 exiting successfully. Buy a developer a beer!
