                               Psi4 1.1 release

  ==> Input File <==

--------------------------------------------------------------------------
set_num_threads( 8 )
memory 2.000000 gb

set { reference rks }
set { basis cc-pVDZ }

molecule MOL {
    0 1
    noreorient
    nocom
    symmetry c1
    O    1.141000   0.017000   0.083000
    C    2.558000   0.086000  -0.005000
    C    3.192000  -0.789000   1.067000
    O    2.466249  -0.672487   2.284817
    H    0.789000   0.590000  -0.620000
    H    2.874000   1.128000   0.115000
    H    2.871000  -0.243000  -1.001000
    H    4.231058  -0.490921   1.238593
    H    3.194597  -1.838420   0.751424
    H    2.911934  -1.248217   2.930407
}

set optking { frozen_dihedral = (" 1 2 3 4, 2 3 4 10 ") }

energy, wfn = energy('B3LYP-D3', return_wfn=True)

import os
os.chdir(os.environ['HTMD_PSI4_WORKDIR'])

oeprop(wfn, 'DIPOLE', 'QUADRUPOLE', 'MULLIKEN_CHARGES')

with open('psi4out.xyz', 'w') as f:
    f.write('10 ' )
    f.write('%.12f\n' % energy)
    f.write(MOL.save_string_xyz())
--------------------------------------------------------------------------

    Molecular point group: c1

    Geometry (in Angstrom), charge = 0, multiplicity = 1:

       Center              X                  Y                   Z               Mass
    ------------   -----------------  -----------------  -----------------  -----------------
           O          1.141000000000     0.017000000000     0.083000000000    15.994914619560
           C          2.558000000000     0.086000000000    -0.005000000000    12.000000000000
           C          3.192000000000    -0.789000000000     1.067000000000    12.000000000000
           O          2.466249000000    -0.672487000000     2.284817000000    15.994914619560
           H          0.789000000000     0.590000000000    -0.620000000000     1.007825032070
           H          2.874000000000     1.128000000000     0.115000000000     1.007825032070
           H          2.871000000000    -0.243000000000    -1.001000000000     1.007825032070
           H          4.231058000000    -0.490921000000     1.238593000000     1.007825032070
           H          3.194597000000    -1.838420000000     0.751424000000     1.007825032070
           H          2.911934000000    -1.248217000000     2.930407000000     1.007825032070

  Charge       = 0
  Multiplicity = 1
  Basis Set: CC-PVDZ
    Blend: CC-PVDZ
   => B3LYP Composite Functional <=
  Basis Set: (CC-PVDZ AUX)
    Blend: CC-PVDZ-JKFIT

    Orbital Energies (a.u.)
    -----------------------

    Doubly Occupied:

       1A    -19.123609     2A    -19.123569     3A    -10.227003
       4A    -10.226814     5A     -1.016436     6A     -0.996462
       7A     -0.733995     8A     -0.600781     9A     -0.523925
      10A     -0.491139    11A     -0.448538    12A     -0.414227
      13A     -0.398808    14A     -0.335070    15A     -0.320413
      16A     -0.261221    17A     -0.253303

  @DF-RKS Final Energy:  -230.25166745386221

   => Energetics <=

    Nuclear Repulsion Energy =            132.5272805225486934
    One-Electron Energy =                -576.9362671343826605
    Two-Electron Energy =                 238.6985550229045998
    DFT Exchange-Correlation Energy =     -24.5370496349328775
    Empirical Dispersion Energy =          -0.0041862300000000
    PCM Polarization Energy =               0.0000000000000000
    EFP Energy =                            0.0000000000000000
    Total Energy =                       -230.2516674538622112

  Mulliken Charges: (a.u.)
   Center  Symbol    Alpha    Beta     Spin     Total
       1     O     4.13182  4.13182  0.00000 -0.26365
       2     C     2.93416  2.93416  0.00000  0.13169
       3     C     2.93427  2.93427  0.00000  0.13146
       4     O     4.13207  4.13207  0.00000 -0.26413
       5     H     0.43079  0.43079  0.00000  0.13843
       6     H     0.50017  0.50017  0.00000 -0.00034
       7     H     0.50303  0.50303  0.00000 -0.00605
       8     H     0.50291  0.50291  0.00000 -0.00582
       9     H     0.50006  0.50006  0.00000 -0.00012
      10     H     0.43073  0.43073  0.00000  0.13853

   Total alpha = 17.00000, Total beta = 17.00000, Total charge =  0.00000

*** Psi4 exiting successfully. Buy a developer a beer!
