                               Psi4 1.1 release

  ==> Input File <==

--------------------------------------------------------------------------
set_num_threads(1)
set_memory(4203741184)

set { reference rks }
set { basis cc-pVDZ }

molecule MOL {
    0 1
    noreorient
    nocom
    symmetry c1
    O    1.014300  -0.002300   0.060500
    O    2.462400  -0.107500  -0.002400
    H    0.821200  -0.823600  -0.430600
    H    2.511066  -0.430937  -0.922105
}

set optking { frozen_dihedral = (" 3 1 2 4 ") }

set optking { dynamic_level = 1
 geom_maxiter = 250
 print_trajectory_xyz_file = True }

energy, wfn = optimize('B3LYP-D3', return_wfn=True)

import os
os.chdir(os.environ['HTMD_PSI4_WORKDIR'])

oeprop(wfn, 'DIPOLE', 'QUADRUPOLE', 'MULLIKEN_CHARGES')

with open('psi4out.xyz', 'w') as f:
    f.write('4 ' )
    f.write('%.12f\n' % energy)
    f.write(MOL.save_string_xyz())
--------------------------------------------------------------------------

    Molecular point group: c1
  Charge       = 0
  Multiplicity = 1
  Basis Set: CC-PVDZ
    Blend: CC-PVDZ
   => B3LYP Composite Functional <=
  Basis Set: (CC-PVDZ AUX)
    Blend: CC-PVDZ-JKFIT
  @DF-RKS Final Energy:  -151.53919260336815
    Total Energy =                       -151.5391926033681500
    Molecular point group: c1
  Basis Set: CC-PVDZ
    Blend: CC-PVDZ
  Basis Set: (CC-PVDZ AUX)
    Blend: CC-PVDZ-JKFIT
   => B3LYP Composite Functional <=
  Basis Set: CC-PVDZ
    Blend: CC-PVDZ
   => B3LYP Composite Functional <=
  Basis Set: (CC-PVDZ AUX)
    Blend: CC-PVDZ-JKFIT
  @DF-RKS Final Energy:  -151.54167481013232
    Total Energy =                       -151.5416748101322924
  Basis Set: CC-PVDZ
    Blend: CC-PVDZ
  Basis Set: (CC-PVDZ AUX)
  @DF-RKS Final Energy:  -151.54261035365198
    Total Energy =                       -151.5426103536519804
   => B3LYP Composite Functional <=
  Basis Set: (CC-PVDZ AUX)
    Blend: CC-PVDZ-JKFIT
  @DF-RKS Final Energy:  -151.54264403541964
    Total Energy =                       -151.5426440354196416
  Basis Set: CC-PVDZ
    Blend: CC-PVDZ
  Basis Set: (CC-PVDZ AUX)
    Blend: CC-PVDZ-JKFIT
   => B3LYP Composite Functional <=
  Charge       = 0
  Multiplicity = 1
  Basis Set: CC-PVDZ
    Blend: CC-PVDZ
   => B3LYP Composite Functional <=
  Basis Set: (CC-PVDZ AUX)
    Blend: CC-PVDZ-JKFIT

    Orbital Energies (a.u.)
    -----------------------

    Doubly Occupied:

       1A    -19.190151     2A    -19.190119     3A     -1.110351
       4A     -0.892156     5A     -0.558591     6A     -0.423852
       7A     -0.418801     8A     -0.341448     9A     -0.255046

  @DF-RKS Final Energy:  -151.54264712549832

   => Energetics <=

    Nuclear Repulsion Energy =             36.6304963053319810
    One-Electron Energy =                -281.2032472382686592
    Two-Electron Energy =                 107.4889558104205776
    DFT Exchange-Correlation Energy =     -14.4585539129822198
    Empirical Dispersion Energy =          -0.0002980900000000
    PCM Polarization Energy =               0.0000000000000000
    EFP Energy =                            0.0000000000000000
    Total Energy =                       -151.5426471254983198
    Molecular point group: c1
  Basis Set: CC-PVDZ
    Blend: CC-PVDZ
  Basis Set: (CC-PVDZ AUX)
    Blend: CC-PVDZ-JKFIT
   => B3LYP Composite Functional <=

  -Total Gradient:
     Atom            X                  Y                   Z
    ------   -----------------  -----------------  -----------------
       1        0.000179705233    -0.004105841088     0.005773429115
       2        0.000121984347     0.006498538136    -0.002824199768
       3       -0.000132085200     0.002840073148    -0.004755501286
       4       -0.000170123304    -0.005236883768     0.001801202152

  **** Optimization is complete! (in 5 steps) ****
    Final optimized geometry and variables:
    Molecular point group: c1

    Geometry (in Angstrom), charge = 0, multiplicity = 1:

    O            1.012955612732    -0.026655103889     0.066753375574
    O            2.462055112423    -0.096402965875    -0.024969816277
    H            0.714595555394    -0.826418422071    -0.403752809634
    H            2.619359719451    -0.414860508165    -0.932635749664

  Mulliken Charges: (a.u.)
   Center  Symbol    Alpha    Beta     Spin     Total
       1     O     4.08220  4.08220  0.00000 -0.16440
       2     O     4.08220  4.08220  0.00000 -0.16440
       3     H     0.41780  0.41780  0.00000  0.16440
       4     H     0.41780  0.41780  0.00000  0.16440

   Total alpha =  9.00000, Total beta =  9.00000, Total charge = -0.00000

*** Psi4 exiting successfully. Buy a developer a beer!
