                               Psi4 1.1 release

  ==> Input File <==

--------------------------------------------------------------------------
set_num_threads(1)
set_memory(4203741184)

set { reference rks }
set { basis cc-pVDZ }

molecule MOL {
    0 1
    noreorient
    nocom
    symmetry c1
    O    1.141000   0.017000   0.083000
    C    2.558000   0.086000  -0.005000
    C    3.192000  -0.789000   1.067000
    O    4.610000  -0.719000   0.979000
    H    0.897776  -0.915659  -0.049030
    H    2.874000   1.128000   0.115000
    H    2.871000  -0.243000  -1.001000
    H    2.876000  -1.830000   0.947000
    H    2.879000  -0.459000   2.064000
    H    4.961000  -1.293000   1.682000
}

set optking { frozen_dihedral = (" 3 2 1 5 ") }

energy, wfn = energy('B3LYP-D3', return_wfn=True)

import os
os.chdir(os.environ['HTMD_PSI4_WORKDIR'])

oeprop(wfn, 'DIPOLE', 'QUADRUPOLE', 'MULLIKEN_CHARGES')

with open('psi4out.xyz', 'w') as f:
    f.write('10 ' )
    f.write('%.12f\n' % energy)
    f.write(MOL.save_string_xyz())
--------------------------------------------------------------------------

    Molecular point group: c1

    Geometry (in Angstrom), charge = 0, multiplicity = 1:

       Center              X                  Y                   Z               Mass
    ------------   -----------------  -----------------  -----------------  -----------------
           O          1.141000000000     0.017000000000     0.083000000000    15.994914619560
           C          2.558000000000     0.086000000000    -0.005000000000    12.000000000000
           C          3.192000000000    -0.789000000000     1.067000000000    12.000000000000
           O          4.610000000000    -0.719000000000     0.979000000000    15.994914619560
           H          0.897776000000    -0.915659000000    -0.049030000000     1.007825032070
           H          2.874000000000     1.128000000000     0.115000000000     1.007825032070
           H          2.871000000000    -0.243000000000    -1.001000000000     1.007825032070
           H          2.876000000000    -1.830000000000     0.947000000000     1.007825032070
           H          2.879000000000    -0.459000000000     2.064000000000     1.007825032070
           H          4.961000000000    -1.293000000000     1.682000000000     1.007825032070

  Charge       = 0
  Multiplicity = 1
  Basis Set: CC-PVDZ
    Blend: CC-PVDZ
   => B3LYP Composite Functional <=
  Basis Set: (CC-PVDZ AUX)
    Blend: CC-PVDZ-JKFIT

    Orbital Energies (a.u.)
    -----------------------

    Doubly Occupied:

       1A    -19.134970     2A    -19.134519     3A    -10.229346
       4A    -10.227231     5A     -1.022523     6A     -1.011138
       7A     -0.731734     8A     -0.618042     9A     -0.518997
      10A     -0.495657    11A     -0.456234    12A     -0.429453
      13A     -0.398254    14A     -0.345387    15A     -0.324606
      16A     -0.269216    17A     -0.268014

  @DF-RKS Final Energy:  -230.25871540955492

   => Energetics <=

    Nuclear Repulsion Energy =            129.8998570356611140
    One-Electron Energy =                -571.4539567676565639
    Two-Electron Energy =                 235.8379945879744639
    DFT Exchange-Correlation Energy =     -24.5379593055339456
    Empirical Dispersion Energy =          -0.0046509600000000
    PCM Polarization Energy =               0.0000000000000000
    EFP Energy =                            0.0000000000000000
    Total Energy =                       -230.2587154095549238

  Mulliken Charges: (a.u.)
   Center  Symbol    Alpha    Beta     Spin     Total
       1     O     4.13878  4.13878  0.00000 -0.27756
       2     C     2.92675  2.92675  0.00000  0.14650
       3     C     2.94745  2.94745  0.00000  0.10510
       4     O     4.13956  4.13956  0.00000 -0.27911
       5     H     0.43126  0.43126  0.00000  0.13748
       6     H     0.48559  0.48559  0.00000  0.02881
       7     H     0.49709  0.49709  0.00000  0.00582
       8     H     0.50762  0.50762  0.00000 -0.01524
       9     H     0.49781  0.49781  0.00000  0.00438
      10     H     0.42809  0.42809  0.00000  0.14381

   Total alpha = 17.00000, Total beta = 17.00000, Total charge = -0.00000

*** Psi4 exiting successfully. Buy a developer a beer!
