                               Psi4 1.1 release

  ==> Input File <==

--------------------------------------------------------------------------
set {
	reference rks
	basis 6-31G*
}

set_num_threads( 8 )
memory 2 gb

molecule MOL {
1 1

C	 -0.000000	 -0.000000	 -0.191639
C	 -0.813320	 0.909246	 0.510391
C	 -0.812574	 0.901328	 1.901670
C	 -0.000000	 0.000000	 2.596333
C	 0.812574	 -0.901328	 1.901670
C	 0.813320	 -0.909247	 0.510391
C	 -0.000000	 -0.000000	 -1.658508
H	 -1.477885	 1.581814	 -0.024627
H	 -1.452183	 1.589943	 2.444112
H	 -0.000000	 0.000000	 3.681982
H	 1.452183	 -1.589943	 2.444112
H	 1.477884	 -1.581814	 -0.024627
N	 -0.712589	 -0.905950	 -2.322235
N	 0.712590	 0.905950	 -2.322235
H	 0.673432	 1.006470	 -3.329771
H	 1.377190	 1.485970	 -1.827091
H	 -1.377189	 -1.485970	 -1.827091
H	 -0.673431	 -1.006470	 -3.329771

	symmetry c1
}
set optking { dynamic_level = 1 }
set optking {
	frozen_dihedral = ("
		2 1 7 13
	")
}

ee,wfn = optimize('b3lyp-d3', return_wfn=True)
oeprop( wfn, 'DIPOLE', 'QUADRUPOLE', 'MULLIKEN_CHARGES')
f=open( 'psi4out.xyz', 'w' )
f.write( "18  " )
f.write( str(ee) + "\n" )
f.write( MOL.save_string_xyz() )
f.close()
--------------------------------------------------------------------------

    Molecular point group: c1
  Charge       = 1
  Multiplicity = 1
  Basis Set: 6-31G*
    Blend: 6-31G*
   => B3LYP Composite Functional <=
  Basis Set: (6-31G* AUX)
    Blend: CC-PVDZ-JKFIT
  @DF-RKS Final Energy:  -381.46298606805192
    Total Energy =                       -381.4629860680518618
    Molecular point group: c1
  Basis Set: 6-31G*
    Blend: 6-31G*
  Basis Set: (6-31G* AUX)
    Blend: CC-PVDZ-JKFIT
   => B3LYP Composite Functional <=
  Basis Set: 6-31G*
    Blend: 6-31G*
   => B3LYP Composite Functional <=
  Basis Set: (6-31G* AUX)
    Blend: CC-PVDZ-JKFIT
  @DF-RKS Final Energy:  -381.46438192449000
    Total Energy =                       -381.4643819244899419
  Basis Set: 6-31G*
    Blend: 6-31G*
  Basis Set: (6-31G* AUX)
  @DF-RKS Final Energy:  -381.46464217218835
    Total Energy =                       -381.4646421721884053
  @DF-RKS Final Energy:  -381.46466304744195
    Total Energy =                       -381.4646630474420022
   => B3LYP Composite Functional <=
  Basis Set: (6-31G* AUX)
    Blend: CC-PVDZ-JKFIT
  @DF-RKS Final Energy:  -381.46466743983143
    Total Energy =                       -381.4646674398314303
  Basis Set: 6-31G*
    Blend: 6-31G*
  Basis Set: (6-31G* AUX)
    Blend: CC-PVDZ-JKFIT
   => B3LYP Composite Functional <=
  Charge       = 1
  Multiplicity = 1
  Basis Set: 6-31G*
    Blend: 6-31G*
   => B3LYP Composite Functional <=
  Basis Set: (6-31G* AUX)
    Blend: CC-PVDZ-JKFIT

    Orbital Energies (a.u.)
    -----------------------

    Doubly Occupied:

       1A    -14.576117     2A    -14.576029     3A    -10.502862
       4A    -10.368099     5A    -10.349108     6A    -10.348776
       7A    -10.333818     8A    -10.333593     9A    -10.332917
      10A     -1.190456    11A     -1.099573    12A     -1.008833
      13A     -0.922013    14A     -0.895107    15A     -0.845538
      16A     -0.788090    17A     -0.765785    18A     -0.754602
      19A     -0.728130    20A     -0.691740    21A     -0.666898
      22A     -0.623523    23A     -0.615917    24A     -0.577742
      25A     -0.573113    26A     -0.567305    27A     -0.515500
      28A     -0.496647    29A     -0.491609    30A     -0.479895
      31A     -0.404649    32A     -0.398319

  @DF-RKS Final Energy:  -381.46466772316620

   => Energetics <=

    Nuclear Repulsion Energy =            416.2631940665154389
    One-Electron Energy =               -1327.8649687430358881
    Two-Electron Energy =                 574.5528802156316033
    DFT Exchange-Correlation Energy =     -44.4040878822773877
    Empirical Dispersion Energy =          -0.0116853800000000
    PCM Polarization Energy =               0.0000000000000000
    EFP Energy =                            0.0000000000000000
    Total Energy =                       -381.4646677231662579
    Molecular point group: c1
  Basis Set: 6-31G*
    Blend: 6-31G*
  Basis Set: (6-31G* AUX)
    Blend: CC-PVDZ-JKFIT
   => B3LYP Composite Functional <=

  -Total Gradient:
     Atom            X                  Y                   Z
    ------   -----------------  -----------------  -----------------
       1        0.002281874753     0.004035715748    -0.000060874012
       2       -0.002346543011    -0.002144378971     0.000044854192
       3        0.000000540635    -0.000007604573     0.000011501690
       4       -0.000018385319    -0.000000613052    -0.000006381728
       5        0.000006492110    -0.000001935431    -0.000008020255
       6       -0.000004907606    -0.000006271366     0.000004830311
       7        0.002764718884    -0.003950551713    -0.000027360105
       8       -0.000002427274    -0.000002634180     0.000000690820
       9        0.000003192015     0.000001460939    -0.000000269642
      10        0.000003430935     0.000004131922     0.000000622986
      11       -0.000001165941     0.000001489805     0.000002372646
      12        0.000003167078     0.000003414201    -0.000002402360
      13       -0.002681718235     0.002042738216     0.000044227343
      14       -0.000035611415     0.000001891986     0.000001598385
      15        0.000011413588    -0.000007882643     0.000005098279
      16        0.000007452074    -0.000007961616    -0.000001126605
      17        0.000015472889     0.000029519805    -0.000022610535
      18       -0.000004782807     0.000002440987     0.000001226527

  **** Optimization is complete! (in 6 steps) ****
    Final optimized geometry and variables:
    Molecular point group: c1

    Geometry (in Angstrom), charge = 1, multiplicity = 1:

    C            0.038718251515     0.019434405339    -0.184763930666
    C           -0.777220859276     0.933601234402     0.497643808707
    C           -0.800779218000     0.910557977091     1.891335663963
    C           -0.021927110158    -0.015085870572     2.590800436723
    C            0.779247541239    -0.930532857624     1.903107627355
    C            0.804724571702    -0.928309176152     0.509287072939
    C            0.017611621396    -0.000086333837    -1.667547532842
    H           -1.384745592668     1.647442623774    -0.051425240442
    H           -1.430006373051     1.612779768368     2.428782263493
    H           -0.042330070362    -0.025561857324     3.676170131362
    H            1.381664322602    -1.648812757028     2.449941075900
    H            1.422527235153    -1.640312938894    -0.030705944388
    N           -0.698135365819    -0.925126842525    -2.287824193284
    N            0.671994644327     0.937324948831    -2.335076265140
    H            0.661250455431     1.017408196499    -3.346708918443
    H            1.227777453801     1.610434105386    -1.821866065867
    H           -1.213679557712    -1.600176593540    -1.736658993689
    H           -0.739985340400    -1.018608755636    -3.297531495588

  Mulliken Charges: (a.u.)
   Center  Symbol    Alpha    Beta     Spin     Total
       1     C     2.99247  2.99247  0.00000  0.01507
       2     C     3.06989  3.06989  0.00000 -0.13978
       3     C     3.06267  3.06267  0.00000 -0.12534
       4     C     3.05358  3.05358  0.00000 -0.10717
       5     C     3.06290  3.06290  0.00000 -0.12581
       6     C     3.07238  3.07238  0.00000 -0.14476
       7     C     2.74672  2.74672  0.00000  0.50655
       8     H     0.41353  0.41353  0.00000  0.17295
       9     H     0.40729  0.40729  0.00000  0.18543
      10     H     0.40667  0.40667  0.00000  0.18665
      11     H     0.40731  0.40731  0.00000  0.18538
      12     H     0.41368  0.41368  0.00000  0.17264
      13     N     3.84448  3.84448  0.00000 -0.68897
      14     N     3.84538  3.84538  0.00000 -0.69076
      15     H     0.30506  0.30506  0.00000  0.38989
      16     H     0.29542  0.29542  0.00000  0.40916
      17     H     0.29554  0.29554  0.00000  0.40893
      18     H     0.30504  0.30504  0.00000  0.38993

   Total alpha = 32.00000, Total beta = 32.00000, Total charge =  1.00000

*** Psi4 exiting successfully. Buy a developer a beer!
