                              Psi4 1.0.54 Driver

  ==> Input File <==

--------------------------------------------------------------------------
set_num_threads(1)
set_memory(3145728000)

set { reference rks }
set { basis 6-31G* }

molecule MOL {
    1 1
    noreorient
    nocom
    symmetry c1
    C    0.000000   0.000000  -0.177864
    C    0.036678   1.219374   0.524165
    C    0.031764   1.213119   1.915444
    C   -0.000000  -0.000000   2.610107
    C   -0.031764  -1.213119   1.915444
    C   -0.036677  -1.219374   0.524165
    C    0.000000  -0.000000  -1.644734
    H    0.018170   2.164705  -0.010853
    H    0.042402   2.152895   2.457886
    H   -0.000000  -0.000000   3.695756
    H   -0.042402  -2.152895   2.457886
    H   -0.018170  -2.164705  -0.010853
    N   -1.140612  -0.165932  -2.308461
    N    1.140612   0.165932  -2.308461
    H    1.181463   0.265776  -3.315997
    H    2.021932   0.128638  -1.813317
    H   -2.021932  -0.128637  -1.813317
    H   -1.181463  -0.265776  -3.315997
}

set optking { frozen_dihedral = (" 2 1 7 13 ") }

set optking { dynamic_level = 1
 geom_maxiter = 250
 print_trajectory_xyz_file = True }

energy, wfn = optimize('B3LYP-D3', return_wfn=True)

import os
os.chdir(os.environ['HTMD_PSI4_WORKDIR'])

oeprop(wfn, 'DIPOLE', 'QUADRUPOLE', 'MULLIKEN_CHARGES')

with open('psi4out.xyz', 'w') as f:
    f.write('18 ' )
    f.write('%.12f\n' % energy)
    f.write(MOL.save_string_xyz())
--------------------------------------------------------------------------

    Molecular point group: c1
  Charge       = 1
  Multiplicity = 1
  Basis Set: 6-31G*
   => B3LYP-D3 Composite Functional <=
  Basis Set:
  @DF-RKS Final Energy:  -381.46298610605925
    Total Energy =                       -381.4629861060593043
    Molecular point group: c1
  Basis Set: 6-31G*
  Basis Set:
   => B3LYP-D3 Composite Functional <=
  Basis Set: 6-31G*
   => B3LYP-D3 Composite Functional <=
  Basis Set:
  @DF-RKS Final Energy:  -381.46438192469049
    Total Energy =                       -381.4643819246904286
  Basis Set: 6-31G*
  Basis Set:
   => B3LYP-D3 Composite Functional <=
  Basis Set: 6-31G*
   => B3LYP-D3 Composite Functional <=
  Basis Set:
  @DF-RKS Final Energy:  -381.46464217299769
    Total Energy =                       -381.4646421729977419
  Basis Set: 6-31G*
  Basis Set:
   => B3LYP-D3 Composite Functional <=
  Basis Set:
  @DF-RKS Final Energy:  -381.46466304690745
    Total Energy =                       -381.4646630469075035
  Basis Set: 6-31G*
  Basis Set:
   => B3LYP-D3 Composite Functional <=
  Basis Set: 6-31G*
   => B3LYP-D3 Composite Functional <=
  Basis Set:
  @DF-RKS Final Energy:  -381.46466743950191
    Total Energy =                       -381.4646674395018522
  Basis Set: 6-31G*
  Basis Set:
   => B3LYP-D3 Composite Functional <=
  Charge       = 1
  Multiplicity = 1
  Basis Set: 6-31G*
   => B3LYP-D3 Composite Functional <=
  Basis Set:

    Orbital Energies (a.u.)
    -----------------------

    Doubly Occupied:

       1A    -14.576117     2A    -14.576029     3A    -10.502862
       4A    -10.368099     5A    -10.349108     6A    -10.348776
       7A    -10.333819     8A    -10.333593     9A    -10.332917
      10A     -1.190456    11A     -1.099573    12A     -1.008833
      13A     -0.922013    14A     -0.895107    15A     -0.845538
      16A     -0.788090    17A     -0.765785    18A     -0.754602
      19A     -0.728130    20A     -0.691740    21A     -0.666898
      22A     -0.623523    23A     -0.615917    24A     -0.577742
      25A     -0.573113    26A     -0.567305    27A     -0.515500
      28A     -0.496647    29A     -0.491609    30A     -0.479895
      31A     -0.404649    32A     -0.398319

  @DF-RKS Final Energy:  -381.46466772250579

   => Energetics <=

    Nuclear Repulsion Energy =            416.2631704868193196
    One-Electron Energy =               -1327.8649226000989074
    Two-Electron Energy =                 574.5528570957761758
    DFT Exchange-Correlation Energy =     -44.4040873250023722
    Empirical Dispersion Energy =          -0.0116853800000000
    PCM Polarization Energy =               0.0000000000000000
    EFP Energy =                            0.0000000000000000
    Total Energy =                       -381.4646677225058511
    Molecular point group: c1
  Basis Set: 6-31G*
  Basis Set:
   => B3LYP-D3 Composite Functional <=

  -Total Gradient:
     Atom            X                  Y                   Z
    ------   -----------------  -----------------  -----------------
       1        0.004433986004     0.001353786078    -0.000060873574
       2       -0.003178155734     0.000061719428     0.000044823713
       3       -0.000004833771    -0.000005883211     0.000011498844
       4       -0.000013753645     0.000012164685    -0.000006380233
       5        0.000003366901    -0.000005901083    -0.000008043389
       6       -0.000007852419    -0.000001140146     0.000004843766
       7       -0.000716831199    -0.004768195754    -0.000027390919
       8       -0.000003578826    -0.000000223330     0.000000673864
       9        0.000003314838    -0.000001091979    -0.000000231171
      10        0.000005336070     0.000000628181     0.000000638759
      11        0.000000182657     0.000001918582     0.000002350858
      12        0.000004643932     0.000000323504    -0.000002388699
      13       -0.000537070660     0.003328043326     0.000044247436
      14       -0.000024526605     0.000025903467     0.000001603894
      15        0.000002838840    -0.000013581107     0.000005134409
      16       -0.000000101877    -0.000010905827    -0.000001141574
      17        0.000031580660     0.000010749148    -0.000022633918
      18       -0.000001782862     0.000005065196     0.000001245950

  **** Optimization is complete! (in 6 steps) ****
    Final optimized geometry and variables:
    Molecular point group: c1

    Geometry (in Angstrom), charge = 1, multiplicity = 1:

    C            0.047284783038    -0.014775412722    -0.173984091164
    C            0.085453191737     1.209969700923     0.508423935313
    C            0.052502526617     1.209491361028     1.902115942032
    C           -0.020457163391     0.001971366243     2.601580589310
    C           -0.070210740118    -1.213532040702     1.913887503382
    C           -0.050209647103    -1.229468354235     0.520066815664
    C            0.018537651481    -0.014388867295    -1.656767622739
    H            0.136725955279     2.145932980087    -0.040644994913
    H            0.080038677151     2.151979546473     2.439562834839
    H           -0.042463958461     0.008430215001     3.686950362619
    H           -0.128243795160    -2.149194639449     2.460720802550
    H           -0.092765837736    -2.171178755214    -0.019926420986
    N           -1.137513029724    -0.191985651364    -2.277044315107
    N            1.138623765195     0.214443500199    -2.324296369642
    H            1.185996518958     0.279899998479    -3.335929082251
    H            2.005177466448     0.319587224657    -1.811086126821
    H           -1.976232586142    -0.326252322378    -1.725879109028
    H           -1.232242778068    -0.230928849733    -3.286751653059

  Mulliken Charges: (a.u.)
   Center  Symbol    Alpha    Beta     Spin     Total
       1     C     2.99247  2.99247  0.00000  0.01507
       2     C     3.06989  3.06989  0.00000 -0.13978
       3     C     3.06267  3.06267  0.00000 -0.12534
       4     C     3.05358  3.05358  0.00000 -0.10717
       5     C     3.06290  3.06290  0.00000 -0.12581
       6     C     3.07238  3.07238  0.00000 -0.14476
       7     C     2.74672  2.74672  0.00000  0.50655
       8     H     0.41353  0.41353  0.00000  0.17295
       9     H     0.40729  0.40729  0.00000  0.18543
      10     H     0.40667  0.40667  0.00000  0.18665
      11     H     0.40731  0.40731  0.00000  0.18538
      12     H     0.41368  0.41368  0.00000  0.17264
      13     N     3.84448  3.84448  0.00000 -0.68897
      14     N     3.84538  3.84538  0.00000 -0.69076
      15     H     0.30506  0.30506  0.00000  0.38989
      16     H     0.29542  0.29542  0.00000  0.40916
      17     H     0.29554  0.29554  0.00000  0.40893
      18     H     0.30504  0.30504  0.00000  0.38993

   Total alpha = 32.00000, Total beta = 32.00000, Total charge =  1.00000

*** Psi4 exiting successfully. Buy a developer a beer!
