                               Psi4 1.1 release

  ==> Input File <==

--------------------------------------------------------------------------
set {
	reference rks
	basis 6-31G*
}

set_num_threads( 8 )
memory 2 gb

molecule MOL {
1 1

C	 -0.000000	 -0.000000	 -0.191639
C	 0.249733	 -1.194090	 0.510391
C	 0.253046	 -1.186860	 1.901670
C	 -0.000000	 0.000000	 2.596333
C	 -0.253046	 1.186860	 1.901670
C	 -0.249732	 1.194090	 0.510391
C	 -0.000000	 -0.000000	 -1.658508
H	 0.488979	 -2.108833	 -0.024627
H	 0.462655	 -2.103023	 2.444112
H	 -0.000000	 0.000000	 3.681982
H	 -0.462657	 2.103023	 2.444112
H	 -0.488979	 2.108833	 -0.024627
N	 -0.712589	 -0.905950	 -2.322235
N	 0.712590	 0.905950	 -2.322235
H	 0.673432	 1.006470	 -3.329771
H	 1.377190	 1.485970	 -1.827091
H	 -1.377189	 -1.485970	 -1.827091
H	 -0.673431	 -1.006470	 -3.329771

	symmetry c1
}
set optking { dynamic_level = 1 }
set optking {
	frozen_dihedral = ("
		2 1 7 13
	")
}

ee,wfn = optimize('b3lyp-d3', return_wfn=True)
oeprop( wfn, 'DIPOLE', 'QUADRUPOLE', 'MULLIKEN_CHARGES')
f=open( 'psi4out.xyz', 'w' )
f.write( "18  " )
f.write( str(ee) + "\n" )
f.write( MOL.save_string_xyz() )
f.close()
--------------------------------------------------------------------------

    Molecular point group: c1
  Charge       = 1
  Multiplicity = 1
  Basis Set: 6-31G*
    Blend: 6-31G*
   => B3LYP Composite Functional <=
  Basis Set: (6-31G* AUX)
    Blend: CC-PVDZ-JKFIT
  @DF-RKS Final Energy:  -381.46921515307110
    Total Energy =                       -381.4692151530710476
    Molecular point group: c1
  Basis Set: 6-31G*
    Blend: 6-31G*
  Basis Set: (6-31G* AUX)
    Blend: CC-PVDZ-JKFIT
   => B3LYP Composite Functional <=
  Basis Set: 6-31G*
    Blend: 6-31G*
   => B3LYP Composite Functional <=
  Basis Set: (6-31G* AUX)
    Blend: CC-PVDZ-JKFIT
  @DF-RKS Final Energy:  -381.46952524592700
    Total Energy =                       -381.4695252459269454
  Basis Set: 6-31G*
    Blend: 6-31G*
  Basis Set: (6-31G* AUX)
  @DF-RKS Final Energy:  -381.46965210326505
    Total Energy =                       -381.4696521032650480
  @DF-RKS Final Energy:  -381.46966045703317
    Total Energy =                       -381.4696604570332283
   => B3LYP Composite Functional <=
  Basis Set: (6-31G* AUX)
    Blend: CC-PVDZ-JKFIT
  @DF-RKS Final Energy:  -381.46966172892024
    Total Energy =                       -381.4696617289202436
  Basis Set: 6-31G*
    Blend: 6-31G*
  Basis Set: (6-31G* AUX)
    Blend: CC-PVDZ-JKFIT
   => B3LYP Composite Functional <=
  Charge       = 1
  Multiplicity = 1
  Basis Set: 6-31G*
    Blend: 6-31G*
   => B3LYP Composite Functional <=
  Basis Set: (6-31G* AUX)
    Blend: CC-PVDZ-JKFIT

    Orbital Energies (a.u.)
    -----------------------

    Doubly Occupied:

       1A    -14.570097     2A    -14.570070     3A    -10.498165
       4A    -10.371587     5A    -10.354304     6A    -10.353899
       7A    -10.340464     8A    -10.338714     9A    -10.338612
      10A     -1.185314    11A     -1.094033    12A     -1.012836
      13A     -0.925362    14A     -0.900305    15A     -0.845001
      16A     -0.786184    17A     -0.771443    18A     -0.745500
      19A     -0.731115    20A     -0.689134    21A     -0.668666
      22A     -0.622593    23A     -0.619739    24A     -0.583274
      25A     -0.577357    26A     -0.571294    27A     -0.517956
      28A     -0.503048    29A     -0.496374    30A     -0.474458
      31A     -0.410000    32A     -0.403857

  @DF-RKS Final Energy:  -381.46966187482360

   => Energetics <=

    Nuclear Repulsion Energy =            416.8629187975871560
    One-Electron Energy =               -1328.9759680061210929
    Two-Electron Energy =                 575.0608902189892433
    DFT Exchange-Correlation Energy =     -44.4055205652787706
    Empirical Dispersion Energy =          -0.0119823200000000
    PCM Polarization Energy =               0.0000000000000000
    EFP Energy =                            0.0000000000000000
    Total Energy =                       -381.4696618748235437
    Molecular point group: c1
  Basis Set: 6-31G*
    Blend: 6-31G*
  Basis Set: (6-31G* AUX)
    Blend: CC-PVDZ-JKFIT
   => B3LYP Composite Functional <=

  -Total Gradient:
     Atom            X                  Y                   Z
    ------   -----------------  -----------------  -----------------
       1       -0.005415609404    -0.000071636786    -0.000077002610
       2        0.002908777061     0.000629322473     0.000042203109
       3        0.000014141174     0.000002468664     0.000003466972
       4        0.000003839415    -0.000000085912    -0.000007092798
       5        0.000000759579     0.000000621703    -0.000001266294
       6       -0.000009284233    -0.000002908940     0.000005725657
       7        0.005023180733    -0.002477716478     0.000050299771
       8        0.000002503733     0.000001628434    -0.000002905221
       9       -0.000003577238     0.000000242334    -0.000000974315
      10       -0.000004095426     0.000001088906     0.000000573912
      11        0.000001787018    -0.000000862863     0.000003086162
      12       -0.000000326359     0.000001194801    -0.000005443948
      13       -0.002505567277     0.001920676771    -0.000048813008
      14       -0.000019943300     0.000004241869     0.000005281168
      15        0.000006025998    -0.000007016336     0.000001024526
      16        0.000006288953     0.000002665451     0.000006376007
      17       -0.000003028556    -0.000000087288    -0.000000641661
      18       -0.000004607527     0.000003266245     0.000004489311

  **** Optimization is complete! (in 6 steps) ****
    Final optimized geometry and variables:
    Molecular point group: c1

    Geometry (in Angstrom), charge = 1, multiplicity = 1:

    C           -0.027546699333    -0.007433356001    -0.190189823055
    C            0.221797405998    -1.201736081010     0.508559930567
    C            0.245189679835    -1.187863402758     1.900561841111
    C            0.018882311289     0.005820036012     2.592179789156
    C           -0.221545566854     1.194689765593     1.896142178502
    C           -0.231513377610     1.198061330687     0.504235827696
    C            0.000088760793    -0.008859652950    -1.659765244806
    H            0.424953621309    -2.122124325364    -0.031868506386
    H            0.448915637156    -2.104353260198     2.444785460840
    H            0.033045741059     0.010655004822     3.677732138130
    H           -0.403918400570     2.117142012213     2.437894244575
    H           -0.438896569910     2.116093894132    -0.038493073138
    N           -0.692887655597    -0.925016306625    -2.326506527857
    N            0.683148447638     0.930213188751    -2.304323700645
    H            0.661850651141     1.038026856826    -3.312120898812
    H            1.295203282868     1.546479365774    -1.784967222631
    H           -1.304022345931    -1.553377781313    -1.820689422739
    H           -0.645543119035    -1.033574883118    -3.333328002559

  Mulliken Charges: (a.u.)
   Center  Symbol    Alpha    Beta     Spin     Total
       1     C     2.96855  2.96855  0.00000  0.06290
       2     C     3.07824  3.07824  0.00000 -0.15647
       3     C     3.06205  3.06205  0.00000 -0.12409
       4     C     3.05202  3.05202  0.00000 -0.10403
       5     C     3.06302  3.06302  0.00000 -0.12605
       6     C     3.07942  3.07942  0.00000 -0.15883
       7     C     2.73029  2.73029  0.00000  0.53942
       8     H     0.41366  0.41366  0.00000  0.17268
       9     H     0.40588  0.40588  0.00000  0.18824
      10     H     0.40462  0.40462  0.00000  0.19077
      11     H     0.40587  0.40587  0.00000  0.18826
      12     H     0.41345  0.41345  0.00000  0.17311
      13     N     3.85677  3.85677  0.00000 -0.71354
      14     N     3.85817  3.85817  0.00000 -0.71635
      15     H     0.30550  0.30550  0.00000  0.38901
      16     H     0.29862  0.29862  0.00000  0.40276
      17     H     0.29825  0.29825  0.00000  0.40350
      18     H     0.30563  0.30563  0.00000  0.38873

   Total alpha = 32.00000, Total beta = 32.00000, Total charge =  1.00000

*** Psi4 exiting successfully. Buy a developer a beer!
