                               Psi4 1.1 release

  ==> Input File <==

--------------------------------------------------------------------------
set_num_threads(1)
set_memory(4203741184)

set { reference rks }
set { basis cc-pVDZ }

molecule MOL {
    0 1
    noreorient
    nocom
    symmetry c1
    O    1.141000   0.017000   0.083000
    C    2.558000   0.086000  -0.005000
    C    3.192000  -0.789000   1.067000
    O    4.610000  -0.719000   0.979000
    H    0.930710  -0.794916   0.575963
    H    2.874000   1.128000   0.115000
    H    2.871000  -0.243000  -1.001000
    H    2.876000  -1.830000   0.947000
    H    2.879000  -0.459000   2.064000
    H    4.961000  -1.293000   1.682000
}

set optking { frozen_dihedral = (" 3 2 1 5 ") }

energy, wfn = energy('B3LYP-D3', return_wfn=True)

import os
os.chdir(os.environ['HTMD_PSI4_WORKDIR'])

oeprop(wfn, 'DIPOLE', 'QUADRUPOLE', 'MULLIKEN_CHARGES')

with open('psi4out.xyz', 'w') as f:
    f.write('10 ' )
    f.write('%.12f\n' % energy)
    f.write(MOL.save_string_xyz())
--------------------------------------------------------------------------

    Molecular point group: c1

    Geometry (in Angstrom), charge = 0, multiplicity = 1:

       Center              X                  Y                   Z               Mass
    ------------   -----------------  -----------------  -----------------  -----------------
           O          1.141000000000     0.017000000000     0.083000000000    15.994914619560
           C          2.558000000000     0.086000000000    -0.005000000000    12.000000000000
           C          3.192000000000    -0.789000000000     1.067000000000    12.000000000000
           O          4.610000000000    -0.719000000000     0.979000000000    15.994914619560
           H          0.930710000000    -0.794916000000     0.575963000000     1.007825032070
           H          2.874000000000     1.128000000000     0.115000000000     1.007825032070
           H          2.871000000000    -0.243000000000    -1.001000000000     1.007825032070
           H          2.876000000000    -1.830000000000     0.947000000000     1.007825032070
           H          2.879000000000    -0.459000000000     2.064000000000     1.007825032070
           H          4.961000000000    -1.293000000000     1.682000000000     1.007825032070

  Charge       = 0
  Multiplicity = 1
  Basis Set: CC-PVDZ
    Blend: CC-PVDZ
   => B3LYP Composite Functional <=
  Basis Set: (CC-PVDZ AUX)
    Blend: CC-PVDZ-JKFIT

    Orbital Energies (a.u.)
    -----------------------

    Doubly Occupied:

       1A    -19.139136     2A    -19.133423     3A    -10.236630
       4A    -10.226785     5A     -1.025317     6A     -1.012453
       7A     -0.733421     8A     -0.625349     9A     -0.518152
      10A     -0.489444    11A     -0.472921    12A     -0.424322
      13A     -0.399121    14A     -0.354271    15A     -0.323791
      16A     -0.272901    17A     -0.266058

  @DF-RKS Final Energy:  -230.25631621100430

   => Energetics <=

    Nuclear Repulsion Energy =            130.1114376137882687
    One-Electron Energy =                -571.7957952025802797
    Two-Electron Energy =                 235.9710412762244118
    DFT Exchange-Correlation Energy =     -24.5383603284367133
    Empirical Dispersion Energy =          -0.0046395700000000
    PCM Polarization Energy =               0.0000000000000000
    EFP Energy =                            0.0000000000000000
    Total Energy =                       -230.2563162110043038

  Mulliken Charges: (a.u.)
   Center  Symbol    Alpha    Beta     Spin     Total
       1     O     4.13671  4.13671  0.00000 -0.27343
       2     C     2.92018  2.92018  0.00000  0.15964
       3     C     2.96007  2.96007  0.00000  0.07986
       4     O     4.13706  4.13706  0.00000 -0.27412
       5     H     0.43298  0.43298  0.00000  0.13403
       6     H     0.48916  0.48916  0.00000  0.02167
       7     H     0.49514  0.49514  0.00000  0.00972
       8     H     0.50248  0.50248  0.00000 -0.00497
       9     H     0.49828  0.49828  0.00000  0.00345
      10     H     0.42793  0.42793  0.00000  0.14415

   Total alpha = 17.00000, Total beta = 17.00000, Total charge =  0.00000

*** Psi4 exiting successfully. Buy a developer a beer!
