                               Psi4 1.1 release

  ==> Input File <==

--------------------------------------------------------------------------
set_num_threads(1)
set_memory(4203741184)

set { reference rks }
set { basis cc-pVDZ }

molecule MOL {
    0 1
    noreorient
    nocom
    symmetry c1
    O    1.050400   0.042900  -0.048100
    C    2.474100   0.047400  -0.029000
    C    3.002600  -1.068900  -0.932000
    N    4.462700  -1.072400  -1.006800
    H    0.783746  -0.289629  -0.922361
    H    2.809900  -0.097900   1.003200
    H    2.817400   1.026800  -0.378600
    H    2.581000  -0.963300  -1.938400
    H    2.653800  -2.036400  -0.553400
    H    4.779000  -0.221000  -1.470000
    H    4.758600  -1.842500  -1.606500
}

set optking { frozen_dihedral = (" 3 2 1 5 ") }

energy, wfn = energy('B3LYP-D3', return_wfn=True)

import os
os.chdir(os.environ['HTMD_PSI4_WORKDIR'])

oeprop(wfn, 'DIPOLE', 'QUADRUPOLE', 'MULLIKEN_CHARGES')

with open('psi4out.xyz', 'w') as f:
    f.write('11 ' )
    f.write('%.12f\n' % energy)
    f.write(MOL.save_string_xyz())
--------------------------------------------------------------------------

    Molecular point group: c1

    Geometry (in Angstrom), charge = 0, multiplicity = 1:

       Center              X                  Y                   Z               Mass
    ------------   -----------------  -----------------  -----------------  -----------------
           O          1.050400000000     0.042900000000    -0.048100000000    15.994914619560
           C          2.474100000000     0.047400000000    -0.029000000000    12.000000000000
           C          3.002600000000    -1.068900000000    -0.932000000000    12.000000000000
           N          4.462700000000    -1.072400000000    -1.006800000000    14.003074004780
           H          0.783746000000    -0.289629000000    -0.922361000000     1.007825032070
           H          2.809900000000    -0.097900000000     1.003200000000     1.007825032070
           H          2.817400000000     1.026800000000    -0.378600000000     1.007825032070
           H          2.581000000000    -0.963300000000    -1.938400000000     1.007825032070
           H          2.653800000000    -2.036400000000    -0.553400000000     1.007825032070
           H          4.779000000000    -0.221000000000    -1.470000000000     1.007825032070
           H          4.758600000000    -1.842500000000    -1.606500000000     1.007825032070

  Charge       = 0
  Multiplicity = 1
  Basis Set: CC-PVDZ
    Blend: CC-PVDZ
   => B3LYP Composite Functional <=
  Basis Set: (CC-PVDZ AUX)
    Blend: CC-PVDZ-JKFIT

    Orbital Energies (a.u.)
    -----------------------

    Doubly Occupied:

       1A    -19.127188     2A    -14.311441     3A    -10.224373
       4A    -10.211172     5A     -1.010753     6A     -0.883416
       7A     -0.712227     8A     -0.617096     9A     -0.507792
      10A     -0.469273    11A     -0.452712    12A     -0.442918
      13A     -0.396317    14A     -0.368557    15A     -0.321796
      16A     -0.262770    17A     -0.238953

  @DF-RKS Final Energy:  -210.39151673374585

   => Energetics <=

    Nuclear Repulsion Energy =            131.0508112203104645
    One-Electron Energy =                -544.8849351143227295
    Two-Electron Energy =                 226.9341650472994161
    DFT Exchange-Correlation Energy =     -23.4864133370330244
    Empirical Dispersion Energy =          -0.0051445500000000
    PCM Polarization Energy =               0.0000000000000000
    EFP Energy =                            0.0000000000000000
    Total Energy =                       -210.3915167337458456

  Mulliken Charges: (a.u.)
   Center  Symbol    Alpha    Beta     Spin     Total
       1     O     4.13892  4.13892  0.00000 -0.27783
       2     C     2.91433  2.91433  0.00000  0.17133
       3     C     3.00735  3.00735  0.00000 -0.01470
       4     N     3.58975  3.58975  0.00000 -0.17949
       5     H     0.43324  0.43324  0.00000  0.13352
       6     H     0.48776  0.48776  0.00000  0.02449
       7     H     0.50299  0.50299  0.00000 -0.00598
       8     H     0.50821  0.50821  0.00000 -0.01641
       9     H     0.48926  0.48926  0.00000  0.02147
      10     H     0.46448  0.46448  0.00000  0.07103
      11     H     0.46371  0.46371  0.00000  0.07258

   Total alpha = 17.00000, Total beta = 17.00000, Total charge = -0.00000

*** Psi4 exiting successfully. Buy a developer a beer!
