                               Psi4 1.1 release

  ==> Input File <==

--------------------------------------------------------------------------
set {
	reference rks
	basis cc-pvdz
}

set_num_threads( 8 )
memory 2 gb

molecule MOL {
0 1

O	 1.014300	 -0.002300	 0.060500
O	 2.462400	 -0.107500	 -0.002400
H	 0.875012	 -0.745605	 0.677830
H	 2.655500	 0.713700	 0.488700

	symmetry c1
}
set optking { dynamic_level = 1 }
set optking {
	frozen_dihedral = ("
		3 1 2 4
	")
}

ee,wfn = optimize('b3lyp-d3', return_wfn=True)
oeprop( wfn, 'DIPOLE', 'QUADRUPOLE', 'MULLIKEN_CHARGES')
f=open( 'psi4out.xyz', 'w' )
f.write( "4  " )
f.write( str(ee) + "\n" )
f.write( MOL.save_string_xyz() )
f.close()
--------------------------------------------------------------------------

    Molecular point group: c1
  Charge       = 0
  Multiplicity = 1
  Basis Set: CC-PVDZ
    Blend: CC-PVDZ
   => B3LYP Composite Functional <=
  Basis Set: (CC-PVDZ AUX)
    Blend: CC-PVDZ-JKFIT
  @DF-RKS Final Energy:  -151.55007859855027
    Total Energy =                       -151.5500785985502716
    Molecular point group: c1
  Basis Set: CC-PVDZ
    Blend: CC-PVDZ
  Basis Set: (CC-PVDZ AUX)
    Blend: CC-PVDZ-JKFIT
   => B3LYP Composite Functional <=
  Basis Set: CC-PVDZ
    Blend: CC-PVDZ
   => B3LYP Composite Functional <=
  Basis Set: (CC-PVDZ AUX)
    Blend: CC-PVDZ-JKFIT
  @DF-RKS Final Energy:  -151.55066020580182
    Total Energy =                       -151.5506602058018188
  Basis Set: CC-PVDZ
    Blend: CC-PVDZ
  Basis Set: (CC-PVDZ AUX)
  @DF-RKS Final Energy:  -151.55106884577765
    Total Energy =                       -151.5510688457776496
   => B3LYP Composite Functional <=
  Basis Set: (CC-PVDZ AUX)
    Blend: CC-PVDZ-JKFIT
  @DF-RKS Final Energy:  -151.55107638476505
    Total Energy =                       -151.5510763847650821
  Basis Set: CC-PVDZ
    Blend: CC-PVDZ
  Basis Set: (CC-PVDZ AUX)
    Blend: CC-PVDZ-JKFIT
   => B3LYP Composite Functional <=
  Charge       = 0
  Multiplicity = 1
  Basis Set: CC-PVDZ
    Blend: CC-PVDZ
   => B3LYP Composite Functional <=
  Basis Set: (CC-PVDZ AUX)
    Blend: CC-PVDZ-JKFIT

    Orbital Energies (a.u.)
    -----------------------

    Doubly Occupied:

       1A    -19.187654     2A    -19.187614     3A     -1.109682
       4A     -0.889094     5A     -0.524202     6A     -0.479136
       7A     -0.410451     8A     -0.305970     9A     -0.272637

  @DF-RKS Final Energy:  -151.55107711245842

   => Energetics <=

    Nuclear Repulsion Energy =             36.7464409249784865
    One-Electron Energy =                -281.4777867839288774
    Two-Electron Energy =                 107.6426768781841616
    DFT Exchange-Correlation Energy =     -14.4620536216921760
    Empirical Dispersion Energy =          -0.0003545100000000
    PCM Polarization Energy =               0.0000000000000000
    EFP Energy =                            0.0000000000000000
    Total Energy =                       -151.5510771124583869
    Molecular point group: c1
  Basis Set: CC-PVDZ
    Blend: CC-PVDZ
  Basis Set: (CC-PVDZ AUX)
    Blend: CC-PVDZ-JKFIT
   => B3LYP Composite Functional <=

  -Total Gradient:
     Atom            X                  Y                   Z
    ------   -----------------  -----------------  -----------------
       1       -0.000021392120    -0.000441578435    -0.000443411413
       2       -0.000024498337     0.000374958739    -0.000500851229
       3        0.000043601833     0.000366829021     0.000442229067
       4        0.000001770819    -0.000300959255     0.000491373587

  **** Optimization is complete! (in 5 steps) ****
    Final optimized geometry and variables:
    Molecular point group: c1

    Geometry (in Angstrom), charge = 0, multiplicity = 1:

    O           -0.725589793597     0.028828493782     0.000512923469
    O            0.722437179762    -0.033394552193    -0.065431088878
    H           -0.903830823877    -0.707450402282     0.612564011288
    H            0.953865093232     0.779917062774     0.417734383705

  Mulliken Charges: (a.u.)
   Center  Symbol    Alpha    Beta     Spin     Total
       1     O     4.08927  4.08927  0.00000 -0.17855
       2     O     4.08927  4.08927  0.00000 -0.17855
       3     H     0.41073  0.41073  0.00000  0.17855
       4     H     0.41073  0.41073  0.00000  0.17855

   Total alpha =  9.00000, Total beta =  9.00000, Total charge =  0.00000

*** Psi4 exiting successfully. Buy a developer a beer!
