                              Psi4 1.0.54 Driver

  ==> Input File <==

--------------------------------------------------------------------------
set_num_threads(1)
set_memory(3145728000)

set { reference rks }
set { basis 6-31G* }

molecule MOL {
    1 1
    noreorient
    nocom
    symmetry c1
    C    0.000000   0.000000  -0.177864
    C    0.036678   1.219374   0.524165
    C    0.031764   1.213119   1.915444
    C   -0.000000  -0.000000   2.610107
    C   -0.031764  -1.213119   1.915444
    C   -0.036677  -1.219374   0.524165
    C    0.000000  -0.000000  -1.644734
    H    0.018170   2.164705  -0.010853
    H    0.042402   2.152895   2.457886
    H   -0.000000  -0.000000   3.695756
    H   -0.042402  -2.152895   2.457886
    H   -0.018170  -2.164705  -0.010853
    N    0.860283  -0.767101  -2.308461
    N   -0.860283   0.767100  -2.308461
    H   -0.963026   0.734215  -3.315997
    H   -1.398215   1.466203  -1.813317
    H    1.398215  -1.466203  -1.813317
    H    0.963026  -0.734216  -3.315997
}

set optking { frozen_dihedral = (" 2 1 7 13 ") }

set optking { dynamic_level = 1
 geom_maxiter = 250
 print_trajectory_xyz_file = True }

energy, wfn = optimize('B3LYP-D3', return_wfn=True)

import os
os.chdir(os.environ['HTMD_PSI4_WORKDIR'])

oeprop(wfn, 'DIPOLE', 'QUADRUPOLE', 'MULLIKEN_CHARGES')

with open('psi4out.xyz', 'w') as f:
    f.write('18 ' )
    f.write('%.12f\n' % energy)
    f.write(MOL.save_string_xyz())
--------------------------------------------------------------------------

    Molecular point group: c1
  Charge       = 1
  Multiplicity = 1
  Basis Set: 6-31G*
   => B3LYP-D3 Composite Functional <=
  Basis Set:
  @DF-RKS Final Energy:  -381.46496451411855
    Total Energy =                       -381.4649645141183782
    Molecular point group: c1
  Basis Set: 6-31G*
  Basis Set:
   => B3LYP-D3 Composite Functional <=
  Basis Set: 6-31G*
   => B3LYP-D3 Composite Functional <=
  Basis Set:
  @DF-RKS Final Energy:  -381.46837392733448
    Total Energy =                       -381.4683739273344258
  Basis Set: 6-31G*
  Basis Set:
   => B3LYP-D3 Composite Functional <=
  Basis Set: 6-31G*
   => B3LYP-D3 Composite Functional <=
  Basis Set:
  @DF-RKS Final Energy:  -381.46948707438685
    Total Energy =                       -381.4694870743869046
  Basis Set: 6-31G*
  Basis Set:
  @DF-RKS Final Energy:  -381.46966630705452
    Total Energy =                       -381.4696663070545810
   => B3LYP-D3 Composite Functional <=
  Basis Set:
  @DF-RKS Final Energy:  -381.46967416228927
    Total Energy =                       -381.4696741622892091
  Basis Set: 6-31G*
  Basis Set:
   => B3LYP-D3 Composite Functional <=
  Basis Set: 6-31G*
   => B3LYP-D3 Composite Functional <=
  Basis Set:
  @DF-RKS Final Energy:  -381.46967564511397
    Total Energy =                       -381.4696756451140232
  Basis Set: 6-31G*
  Basis Set:
   => B3LYP-D3 Composite Functional <=
  Charge       = 1
  Multiplicity = 1
  Basis Set: 6-31G*
   => B3LYP-D3 Composite Functional <=
  Basis Set:

    Orbital Energies (a.u.)
    -----------------------

    Doubly Occupied:

       1A    -14.570105     2A    -14.569965     3A    -10.498154
       4A    -10.371627     5A    -10.354357     6A    -10.353924
       7A    -10.340512     8A    -10.338744     9A    -10.338651
      10A     -1.185284    11A     -1.093964    12A     -1.012868
      13A     -0.925399    14A     -0.900344    15A     -0.845003
      16A     -0.786180    17A     -0.771465    18A     -0.745434
      19A     -0.731143    20A     -0.689107    21A     -0.668691
      22A     -0.622671    23A     -0.619699    24A     -0.583311
      25A     -0.577401    26A     -0.571320    27A     -0.517972
      28A     -0.503104    29A     -0.496404    30A     -0.474404
      31A     -0.410035    32A     -0.403898

  @DF-RKS Final Energy:  -381.46967592163941

   => Energetics <=

    Nuclear Repulsion Energy =            416.8770455736997178
    One-Electron Energy =               -1329.0034766254811984
    Two-Electron Energy =                 575.0742676426333446
    DFT Exchange-Correlation Energy =     -44.4055276724913455
    Empirical Dispersion Energy =          -0.0119848400000000
    PCM Polarization Energy =               0.0000000000000000
    EFP Energy =                            0.0000000000000000
    Total Energy =                       -381.4696759216395776
    Molecular point group: c1
  Basis Set: 6-31G*
  Basis Set:
   => B3LYP-D3 Composite Functional <=

  -Total Gradient:
     Atom            X                  Y                   Z
    ------   -----------------  -----------------  -----------------
       1       -0.003368949256     0.001213107425    -0.000111634083
       2        0.002923238550    -0.000122089982     0.000060101285
       3        0.000022083683     0.000004391788    -0.000006967438
       4        0.000007371755     0.000000390714    -0.000004890474
       5       -0.000021111482    -0.000006500887    -0.000005953484
       6        0.000004692073    -0.000009873967     0.000020456650
       7       -0.001656228766    -0.003352060900     0.000033241735
       8       -0.000007728320    -0.000005779961    -0.000002456965
       9       -0.000004523315    -0.000001730865     0.000000881423
      10       -0.000004256707     0.000000413904    -0.000000595773
      11        0.000003413779     0.000001211501     0.000002577196
      12       -0.000004823450     0.000004565463    -0.000000363108
      13        0.002107589489     0.002298728572     0.000031334599
      14        0.000000780164    -0.000035252455     0.000018830142
      15        0.000008422621     0.000011990148    -0.000022363974
      16       -0.000006846933     0.000009542010    -0.000009762691
      17        0.000006486958    -0.000005939509    -0.000003488945
      18       -0.000002320310    -0.000008727802    -0.000019358702

  **** Optimization is complete! (in 7 steps) ****
    Final optimized geometry and variables:
    Molecular point group: c1

    Geometry (in Angstrom), charge = 1, multiplicity = 1:

    C           -0.045912603598    -0.007120645123    -0.177938698011
    C           -0.002062596123     1.215044813703     0.515797086641
    C            0.031690852191     1.210109379331     1.907631921633
    C            0.017138944000    -0.001924629317     2.604259984950
    C           -0.020069079867    -1.217150841824     1.913297169728
    C           -0.037545119936    -1.226881104507     0.521528170392
    C           -0.021266058359    -0.007022647336    -1.647423201377
    H            0.037839655555     2.154538434035    -0.028188894597
    H            0.078729709564     2.150045766611     2.447972582067
    H            0.038413604399     0.000195712723     3.689702623506
    H           -0.038370621118    -2.155124803415     2.458746599939
    H           -0.087513542473    -2.169019765906    -0.017427792562
    N            0.839821221313    -0.788759160228    -2.288741332039
    N           -0.828742401062     0.808056357727    -2.316754953802
    H           -0.786385764642     0.928615553319    -3.322430009174
    H           -1.554464213360     1.309156064184    -1.820351384498
    H            1.529896176623    -1.308454778584    -1.761678703575
    H            0.848802836891    -0.894305705393    -3.297002169221

  Mulliken Charges: (a.u.)
   Center  Symbol    Alpha    Beta     Spin     Total
       1     C     2.96834  2.96834  0.00000  0.06332
       2     C     3.07726  3.07726  0.00000 -0.15452
       3     C     3.06224  3.06224  0.00000 -0.12448
       4     C     3.05197  3.05197  0.00000 -0.10395
       5     C     3.06297  3.06297  0.00000 -0.12594
       6     C     3.08029  3.08029  0.00000 -0.16058
       7     C     2.73024  2.73024  0.00000  0.53953
       8     H     0.41359  0.41359  0.00000  0.17282
       9     H     0.40585  0.40585  0.00000  0.18829
      10     H     0.40460  0.40460  0.00000  0.19079
      11     H     0.40587  0.40587  0.00000  0.18825
      12     H     0.41358  0.41358  0.00000  0.17285
      13     N     3.85689  3.85689  0.00000 -0.71379
      14     N     3.85824  3.85824  0.00000 -0.71649
      15     H     0.30557  0.30557  0.00000  0.38886
      16     H     0.29848  0.29848  0.00000  0.40304
      17     H     0.29844  0.29844  0.00000  0.40311
      18     H     0.30556  0.30556  0.00000  0.38888

   Total alpha = 32.00000, Total beta = 32.00000, Total charge =  1.00000

*** Psi4 exiting successfully. Buy a developer a beer!
