                               Psi4 1.1 release

  ==> Input File <==

--------------------------------------------------------------------------
set {
	reference rks
	basis 6-31G*
}

set_num_threads( 8 )
memory 2 gb

molecule MOL {
1 1

C	 -0.000000	 -0.000000	 -0.191639
C	 1.219315	 0.038588	 0.510391
C	 1.212770	 0.043106	 1.901670
C	 -0.000000	 0.000000	 2.596333
C	 -1.212770	 -0.043106	 1.901670
C	 -1.219315	 -0.038587	 0.510391
C	 -0.000000	 -0.000000	 -1.658508
H	 2.161706	 0.115355	 -0.024627
H	 2.151412	 0.090441	 2.444112
H	 -0.000000	 0.000000	 3.681982
H	 -2.151412	 -0.090442	 2.444112
H	 -2.161706	 -0.115355	 -0.024627
N	 -0.712589	 -0.905950	 -2.322235
N	 0.712590	 0.905950	 -2.322235
H	 0.673432	 1.006470	 -3.329771
H	 1.377190	 1.485970	 -1.827091
H	 -1.377189	 -1.485970	 -1.827091
H	 -0.673431	 -1.006470	 -3.329771

	symmetry c1
}
set optking { dynamic_level = 1 }
set optking {
	frozen_dihedral = ("
		2 1 7 13
	")
}

ee,wfn = optimize('b3lyp-d3', return_wfn=True)
oeprop( wfn, 'DIPOLE', 'QUADRUPOLE', 'MULLIKEN_CHARGES')
f=open( 'psi4out.xyz', 'w' )
f.write( "18  " )
f.write( str(ee) + "\n" )
f.write( MOL.save_string_xyz() )
f.close()
--------------------------------------------------------------------------

    Molecular point group: c1
  Charge       = 1
  Multiplicity = 1
  Basis Set: 6-31G*
    Blend: 6-31G*
   => B3LYP Composite Functional <=
  Basis Set: (6-31G* AUX)
    Blend: CC-PVDZ-JKFIT
  @DF-RKS Final Energy:  -381.46496450294683
    Total Energy =                       -381.4649645029468843
    Molecular point group: c1
  Basis Set: 6-31G*
    Blend: 6-31G*
  Basis Set: (6-31G* AUX)
    Blend: CC-PVDZ-JKFIT
   => B3LYP Composite Functional <=
  Basis Set: 6-31G*
    Blend: 6-31G*
   => B3LYP Composite Functional <=
  Basis Set: (6-31G* AUX)
    Blend: CC-PVDZ-JKFIT
  @DF-RKS Final Energy:  -381.46837392408958
    Total Energy =                       -381.4683739240895761
  Basis Set: 6-31G*
    Blend: 6-31G*
  Basis Set: (6-31G* AUX)
  @DF-RKS Final Energy:  -381.46948708053571
    Total Energy =                       -381.4694870805357141
  @DF-RKS Final Energy:  -381.46966631052163
    Total Energy =                       -381.4696663105216885
  @DF-RKS Final Energy:  -381.46967416493237
    Total Energy =                       -381.4696741649323144
   => B3LYP Composite Functional <=
  Basis Set: (6-31G* AUX)
    Blend: CC-PVDZ-JKFIT
  @DF-RKS Final Energy:  -381.46967564801258
    Total Energy =                       -381.4696756480125828
  Basis Set: 6-31G*
    Blend: 6-31G*
  Basis Set: (6-31G* AUX)
    Blend: CC-PVDZ-JKFIT
   => B3LYP Composite Functional <=
  Charge       = 1
  Multiplicity = 1
  Basis Set: 6-31G*
    Blend: 6-31G*
   => B3LYP Composite Functional <=
  Basis Set: (6-31G* AUX)
    Blend: CC-PVDZ-JKFIT

    Orbital Energies (a.u.)
    -----------------------

    Doubly Occupied:

       1A    -14.570105     2A    -14.569965     3A    -10.498154
       4A    -10.371627     5A    -10.354357     6A    -10.353924
       7A    -10.340512     8A    -10.338744     9A    -10.338651
      10A     -1.185284    11A     -1.093964    12A     -1.012868
      13A     -0.925399    14A     -0.900344    15A     -0.845003
      16A     -0.786180    17A     -0.771465    18A     -0.745434
      19A     -0.731143    20A     -0.689107    21A     -0.668691
      22A     -0.622671    23A     -0.619699    24A     -0.583311
      25A     -0.577401    26A     -0.571320    27A     -0.517972
      28A     -0.503104    29A     -0.496404    30A     -0.474404
      31A     -0.410035    32A     -0.403898

  @DF-RKS Final Energy:  -381.46967592509856

   => Energetics <=

    Nuclear Repulsion Energy =            416.8770456942194755
    One-Electron Energy =               -1329.0034769503417920
    Two-Electron Energy =                 575.0742678100348257
    DFT Exchange-Correlation Energy =     -44.4055276390111189
    Empirical Dispersion Energy =          -0.0119848400000000
    PCM Polarization Energy =               0.0000000000000000
    EFP Energy =                            0.0000000000000000
    Total Energy =                       -381.4696759250985565
    Molecular point group: c1
  Basis Set: 6-31G*
    Blend: 6-31G*
  Basis Set: (6-31G* AUX)
    Blend: CC-PVDZ-JKFIT
   => B3LYP Composite Functional <=

  -Total Gradient:
     Atom            X                  Y                   Z
    ------   -----------------  -----------------  -----------------
       1        0.001002791722     0.003437326701    -0.000111652985
       2        0.000058493612    -0.002925197056     0.000060103759
       3        0.000005601475    -0.000021775723    -0.000006825456
       4        0.000000820826    -0.000007334543    -0.000004926460
       5       -0.000007677815     0.000020678993    -0.000005864778
       6       -0.000009596167    -0.000005305495     0.000020468545
       7       -0.003447680215     0.001446363389     0.000033331446
       8       -0.000006128321     0.000007354124    -0.000002508365
       9       -0.000001999015     0.000004409354     0.000000889546
      10        0.000000152519     0.000004276551    -0.000000716405
      11        0.000001466710    -0.000003327955     0.000002551472
      12        0.000004209154     0.000005097061    -0.000000375249
      13        0.002424307999    -0.001961830866     0.000031308290
      14       -0.000035137668    -0.000002942852     0.000018809996
      15        0.000012498154    -0.000007667943    -0.000022426556
      16        0.000009132741     0.000007477949    -0.000009721397
      17       -0.000005552340    -0.000006872852    -0.000003458286
      18       -0.000008861690     0.000001771657    -0.000019399858

  **** Optimization is complete! (in 7 steps) ****
    Final optimized geometry and variables:
    Molecular point group: c1

    Geometry (in Angstrom), charge = 1, multiplicity = 1:

    C           -0.008475408325     0.039570294497    -0.190254471203
    C            1.214068035417     0.071170985473     0.503481478082
    C            1.211223205810     0.037177400721     1.895316301476
    C            0.000598565817    -0.023040846131     2.591944156268
    C           -1.214609219591    -0.060842999327     1.900981288454
    C           -1.225398579393    -0.044000285070     0.509212241008
    C           -0.006857658388     0.014977420436    -1.659738921968
    H            2.154234363397     0.089280389861    -0.040504369371
    H            2.152271337384     0.048191125399     2.435657139587
    H            0.004026695055    -0.044144204659     3.677386731527
    H           -2.151926648646    -0.100418256225     2.446430667237
    H           -2.168825550786    -0.052225673605    -0.029743830184
    N           -0.734005875235    -0.892677888187    -2.301057540863
    N            0.756875463677     0.871180760820    -2.329070257674
    H            0.879817288350     0.836339730415    -3.334745346511
    H            1.212268495779     1.626422352390    -1.832666230126
    H           -1.210157637191    -1.613487753954    -1.773995240069
    H           -0.838797705722    -0.908150628015    -3.309318387869

  Mulliken Charges: (a.u.)
   Center  Symbol    Alpha    Beta     Spin     Total
       1     C     2.96834  2.96834  0.00000  0.06332
       2     C     3.07726  3.07726  0.00000 -0.15452
       3     C     3.06224  3.06224  0.00000 -0.12448
       4     C     3.05197  3.05197  0.00000 -0.10395
       5     C     3.06297  3.06297  0.00000 -0.12594
       6     C     3.08029  3.08029  0.00000 -0.16058
       7     C     2.73024  2.73024  0.00000  0.53953
       8     H     0.41359  0.41359  0.00000  0.17282
       9     H     0.40585  0.40585  0.00000  0.18829
      10     H     0.40460  0.40460  0.00000  0.19079
      11     H     0.40587  0.40587  0.00000  0.18825
      12     H     0.41358  0.41358  0.00000  0.17285
      13     N     3.85689  3.85689  0.00000 -0.71379
      14     N     3.85824  3.85824  0.00000 -0.71649
      15     H     0.30557  0.30557  0.00000  0.38886
      16     H     0.29848  0.29848  0.00000  0.40304
      17     H     0.29844  0.29844  0.00000  0.40311
      18     H     0.30556  0.30556  0.00000  0.38888

   Total alpha = 32.00000, Total beta = 32.00000, Total charge =  1.00000

*** Psi4 exiting successfully. Buy a developer a beer!
