                              Psi4 1.0.54 Driver

  ==> Input File <==

--------------------------------------------------------------------------
set_num_threads(1)
set_memory(3145728000)

set { reference rks }
set { basis 6-31G* }

molecule MOL {
    1 1
    noreorient
    nocom
    symmetry c1
    C    0.000000   0.000000  -0.177864
    C    0.036678   1.219374   0.524165
    C    0.031764   1.213119   1.915444
    C   -0.000000  -0.000000   2.610107
    C   -0.031764  -1.213119   1.915444
    C   -0.036677  -1.219374   0.524165
    C    0.000000  -0.000000  -1.644734
    H    0.018170   2.164705  -0.010853
    H    0.042402   2.152895   2.457886
    H   -0.000000  -0.000000   3.695756
    H   -0.042402  -2.152895   2.457886
    H   -0.018170  -2.164705  -0.010853
    N   -0.712590  -0.905950  -2.308460
    N    0.712590   0.905950  -2.308461
    H    0.673432   1.006469  -3.315997
    H    1.377190   1.485970  -1.813317
    H   -0.596462  -1.004655  -3.308488
    H   -1.332871  -1.562466  -1.849107
}

set optking { frozen_dihedral = (" 1 7 13 17 ") }

set optking { dynamic_level = 1
 geom_maxiter = 250
 print_trajectory_xyz_file = True }

energy, wfn = optimize('B3LYP-D3', return_wfn=True)

import os
os.chdir(os.environ['HTMD_PSI4_WORKDIR'])

oeprop(wfn, 'DIPOLE', 'QUADRUPOLE', 'MULLIKEN_CHARGES')

with open('psi4out.xyz', 'w') as f:
    f.write('18 ' )
    f.write('%.12f\n' % energy)
    f.write(MOL.save_string_xyz())
--------------------------------------------------------------------------

    Molecular point group: c1
  Charge       = 1
  Multiplicity = 1
  Basis Set: 6-31G*
   => B3LYP-D3 Composite Functional <=
  Basis Set:
  @DF-RKS Final Energy:  -381.46998376957265
    Total Energy =                       -381.4699837695725932
    Molecular point group: c1
  Basis Set: 6-31G*
  Basis Set:
   => B3LYP-D3 Composite Functional <=
  Basis Set: 6-31G*
   => B3LYP-D3 Composite Functional <=
  Basis Set:
  @DF-RKS Final Energy:  -381.47042010702620
    Total Energy =                       -381.4704201070261433
  Basis Set: 6-31G*
  Basis Set:
   => B3LYP-D3 Composite Functional <=
  Basis Set: 6-31G*
   => B3LYP-D3 Composite Functional <=
  Basis Set:
  @DF-RKS Final Energy:  -381.47042010702620
    Total Energy =                       -381.4704201070260865
  Basis Set: 6-31G*
  Basis Set:
   => B3LYP-D3 Composite Functional <=
  Basis Set:
  @DF-RKS Final Energy:  -381.47044656114309
    Total Energy =                       -381.4704465611429782
  Basis Set: 6-31G*
  Basis Set:
   => B3LYP-D3 Composite Functional <=
  Basis Set: 6-31G*
   => B3LYP-D3 Composite Functional <=
  Basis Set:
  @DF-RKS Final Energy:  -381.47045861393491
    Total Energy =                       -381.4704586139350226
  Basis Set: 6-31G*
  Basis Set:
   => B3LYP-D3 Composite Functional <=
  Charge       = 1
  Multiplicity = 1
  Basis Set: 6-31G*
   => B3LYP-D3 Composite Functional <=
  Basis Set:

    Orbital Energies (a.u.)
    -----------------------

    Doubly Occupied:

       1A    -14.567856     2A    -14.567720     3A    -10.496970
       4A    -10.373186     5A    -10.356347     6A    -10.356187
       7A    -10.343180     8A    -10.340538     9A    -10.340474
      10A     -1.183602    11A     -1.091669    12A     -1.014334
      13A     -0.926599    14A     -0.902301    15A     -0.845319
      16A     -0.785633    17A     -0.773173    18A     -0.741834
      19A     -0.732858    20A     -0.688872    21A     -0.669229
      22A     -0.625606    23A     -0.617177    24A     -0.586456
      25A     -0.579212    26A     -0.572736    27A     -0.518520
      28A     -0.505547    29A     -0.498161    30A     -0.472597
      31A     -0.411911    32A     -0.405816

  @DF-RKS Final Energy:  -381.47045935610231

   => Energetics <=

    Nuclear Repulsion Energy =            416.9133333297937725
    One-Electron Energy =               -1329.0364421298620528
    Two-Electron Energy =                 575.0705376408532175
    DFT Exchange-Correlation Energy =     -44.4059517868873073
    Empirical Dispersion Energy =          -0.0119364100000000
    PCM Polarization Energy =               0.0000000000000000
    EFP Energy =                            0.0000000000000000
    Total Energy =                       -381.4704593561023671
    Molecular point group: c1
  Basis Set: 6-31G*
  Basis Set:
   => B3LYP-D3 Composite Functional <=

  -Total Gradient:
     Atom            X                  Y                   Z
    ------   -----------------  -----------------  -----------------
       1        0.000507733985    -0.000394831224     0.000035427305
       2        0.000002846886    -0.000008264936    -0.000013180304
       3       -0.000008153020    -0.000011890710     0.000017278323
       4        0.000011566564     0.000010685912     0.000003548895
       5        0.000005005823    -0.000001322491     0.000006748163
       6        0.000005333376     0.000017239572    -0.000019511619
       7       -0.000520671052     0.000300303820     0.000002061523
       8       -0.000007395481     0.000001059364     0.000005040791
       9       -0.000002714472     0.000001694776    -0.000000609103
      10       -0.000004520272     0.000002274384    -0.000001702504
      11       -0.000003650571     0.000000957987    -0.000002903347
      12       -0.000006751009    -0.000006101670    -0.000000108851
      13       -0.000657597972     0.000767476563    -0.000256612351
      14        0.000011451725    -0.000039596737     0.000016093864
      15        0.000000574460    -0.000006009068    -0.000005549561
      16       -0.000023505574     0.000007217162    -0.000000033743
      17        0.000661389309    -0.000653629211     0.000169226374
      18        0.000028093793     0.000014399225     0.000023266533

  **** Optimization is complete! (in 4 steps) ****
    Final optimized geometry and variables:
    Molecular point group: c1

    Geometry (in Angstrom), charge = 1, multiplicity = 1:

    C            0.002846660272    -0.001290199583    -0.179663274748
    C            0.032195795152     1.218003624254     0.523013025076
    C            0.025273460499     1.211254558689     1.914214285990
    C           -0.001719786448    -0.002396886800     2.608257705928
    C           -0.026760733769    -1.215400218554     1.913105257592
    C           -0.029564370345    -1.221117904178     0.521817114658
    C            0.007555438675    -0.001211175761    -1.646310554763
    H            0.009851796073     2.163310037182    -0.011927719972
    H            0.030329263109     2.150789917466     2.457165111948
    H           -0.003532168039    -0.002866341637     3.693914100310
    H           -0.033988686140    -2.155402422268     2.455214739916
    H           -0.006191213414    -2.166202430003    -0.013430442387
    N           -0.698422892383    -0.909552843835    -2.313820483478
    N            0.721386588849     0.905440577963    -2.307826961812
    H            0.681335073985     1.008433820340    -3.315117088033
    H            1.381461613423     1.488754756554    -1.810520597000
    H           -0.614467639805    -1.046132508323    -3.314328245517
    H           -1.356298199694    -1.499096361506    -1.821036973708

  Mulliken Charges: (a.u.)
   Center  Symbol    Alpha    Beta     Spin     Total
       1     C     2.95696  2.95696  0.00000  0.08609
       2     C     3.08197  3.08197  0.00000 -0.16393
       3     C     3.06248  3.06248  0.00000 -0.12495
       4     C     3.05142  3.05142  0.00000 -0.10285
       5     C     3.06249  3.06249  0.00000 -0.12498
       6     C     3.08186  3.08186  0.00000 -0.16372
       7     C     2.72221  2.72221  0.00000  0.55558
       8     H     0.41408  0.41408  0.00000  0.17184
       9     H     0.40539  0.40539  0.00000  0.18921
      10     H     0.40383  0.40383  0.00000  0.19234
      11     H     0.40542  0.40542  0.00000  0.18915
      12     H     0.41453  0.41453  0.00000  0.17094
      13     N     3.86358  3.86358  0.00000 -0.72715
      14     N     3.86311  3.86311  0.00000 -0.72623
      15     H     0.30562  0.30562  0.00000  0.38876
      16     H     0.29973  0.29973  0.00000  0.40054
      17     H     0.30560  0.30560  0.00000  0.38880
      18     H     0.29971  0.29971  0.00000  0.40057

   Total alpha = 32.00000, Total beta = 32.00000, Total charge =  1.00000

*** Psi4 exiting successfully. Buy a developer a beer!
