                               Psi4 1.1 release

  ==> Input File <==

--------------------------------------------------------------------------
set_num_threads(1)
set_memory(4203741184)

set { reference rks }
set { basis cc-pVDZ }

molecule MOL {
    0 1
    noreorient
    nocom
    symmetry c1
    O    1.141000   0.017000   0.083000
    C    2.558000   0.086000  -0.005000
    C    3.192000  -0.789000   1.067000
    O    4.610000  -0.719000   0.979000
    H    0.789000   0.590000  -0.620000
    H    2.874000   1.128000   0.115000
    H    2.871000  -0.243000  -1.001000
    H    2.876000  -1.830000   0.947000
    H    2.879000  -0.459000   2.064000
    H    4.814547  -0.252014   0.150163
}

set optking { frozen_dihedral = (" 2 3 4 10 ") }

energy, wfn = energy('B3LYP-D3', return_wfn=True)

import os
os.chdir(os.environ['HTMD_PSI4_WORKDIR'])

oeprop(wfn, 'DIPOLE', 'QUADRUPOLE', 'MULLIKEN_CHARGES')

with open('psi4out.xyz', 'w') as f:
    f.write('10 ' )
    f.write('%.12f\n' % energy)
    f.write(MOL.save_string_xyz())
--------------------------------------------------------------------------

    Molecular point group: c1

    Geometry (in Angstrom), charge = 0, multiplicity = 1:

       Center              X                  Y                   Z               Mass
    ------------   -----------------  -----------------  -----------------  -----------------
           O          1.141000000000     0.017000000000     0.083000000000    15.994914619560
           C          2.558000000000     0.086000000000    -0.005000000000    12.000000000000
           C          3.192000000000    -0.789000000000     1.067000000000    12.000000000000
           O          4.610000000000    -0.719000000000     0.979000000000    15.994914619560
           H          0.789000000000     0.590000000000    -0.620000000000     1.007825032070
           H          2.874000000000     1.128000000000     0.115000000000     1.007825032070
           H          2.871000000000    -0.243000000000    -1.001000000000     1.007825032070
           H          2.876000000000    -1.830000000000     0.947000000000     1.007825032070
           H          2.879000000000    -0.459000000000     2.064000000000     1.007825032070
           H          4.814547000000    -0.252014000000     0.150163000000     1.007825032070

  Charge       = 0
  Multiplicity = 1
  Basis Set: CC-PVDZ
    Blend: CC-PVDZ
   => B3LYP Composite Functional <=
  Basis Set: (CC-PVDZ AUX)
    Blend: CC-PVDZ-JKFIT

    Orbital Energies (a.u.)
    -----------------------

    Doubly Occupied:

       1A    -19.139660     2A    -19.133273     3A    -10.237479
       4A    -10.226769     5A     -1.025866     6A     -1.012448
       7A     -0.733688     8A     -0.626084     9A     -0.518550
      10A     -0.486626    11A     -0.476894    12A     -0.423434
      13A     -0.399181    14A     -0.355267    15A     -0.323758
      16A     -0.273429    17A     -0.265740

  @DF-RKS Final Energy:  -230.25577713044072

   => Energetics <=

    Nuclear Repulsion Energy =            130.1377163629314282
    One-Electron Energy =                -571.8378888223024887
    Two-Electron Energy =                 235.9875390921177427
    DFT Exchange-Correlation Energy =     -24.5385107631873964
    Empirical Dispersion Energy =          -0.0046330000000000
    PCM Polarization Energy =               0.0000000000000000
    EFP Energy =                            0.0000000000000000
    Total Energy =                       -230.2557771304407197

  Mulliken Charges: (a.u.)
   Center  Symbol    Alpha    Beta     Spin     Total
       1     O     4.13651  4.13651  0.00000 -0.27302
       2     C     2.96139  2.96139  0.00000  0.07721
       3     C     2.91981  2.91981  0.00000  0.16037
       4     O     4.13647  4.13647  0.00000 -0.27294
       5     H     0.42796  0.42796  0.00000  0.14409
       6     H     0.49900  0.49900  0.00000  0.00199
       7     H     0.50117  0.50117  0.00000 -0.00234
       8     H     0.49381  0.49381  0.00000  0.01238
       9     H     0.49070  0.49070  0.00000  0.01861
      10     H     0.43318  0.43318  0.00000  0.13365

   Total alpha = 17.00000, Total beta = 17.00000, Total charge =  0.00000

*** Psi4 exiting successfully. Buy a developer a beer!
