                               Psi4 1.1 release

  ==> Input File <==

--------------------------------------------------------------------------
set {
	reference rks
	basis 6-31G*
}

set_num_threads( 8 )
memory 2 gb

molecule MOL {
1 1

C	 -0.000000	 -0.000000	 -0.191639
C	 0.380770	 1.158979	 0.510391
C	 0.374286	 1.154374	 1.901670
C	 -0.000000	 0.000000	 2.596333
C	 -0.374286	 -1.154374	 1.901670
C	 -0.380771	 -1.158979	 0.510391
C	 -0.000000	 -0.000000	 -1.658508
H	 0.630949	 2.070792	 -0.024627
H	 0.650840	 2.052599	 2.444112
H	 -0.000000	 0.000000	 3.681982
H	 -0.650839	 -2.052599	 2.444112
H	 -0.630949	 -2.070792	 -0.024627
N	 -0.712589	 -0.905950	 -2.322235
N	 0.712590	 0.905950	 -2.322235
H	 0.673432	 1.006470	 -3.329771
H	 1.377190	 1.485970	 -1.827091
H	 -1.377189	 -1.485970	 -1.827091
H	 -0.673431	 -1.006470	 -3.329771

	symmetry c1
}
set optking { dynamic_level = 1 }
set optking {
	frozen_dihedral = ("
		2 1 7 13
	")
}

ee,wfn = optimize('b3lyp-d3', return_wfn=True)
oeprop( wfn, 'DIPOLE', 'QUADRUPOLE', 'MULLIKEN_CHARGES')
f=open( 'psi4out.xyz', 'w' )
f.write( "18  " )
f.write( str(ee) + "\n" )
f.write( MOL.save_string_xyz() )
f.close()
--------------------------------------------------------------------------

    Molecular point group: c1
  Charge       = 1
  Multiplicity = 1
  Basis Set: 6-31G*
    Blend: 6-31G*
   => B3LYP Composite Functional <=
  Basis Set: (6-31G* AUX)
    Blend: CC-PVDZ-JKFIT
  @DF-RKS Final Energy:  -381.46858127293041
    Total Energy =                       -381.4685812729303507
    Molecular point group: c1
  Basis Set: 6-31G*
    Blend: 6-31G*
  Basis Set: (6-31G* AUX)
    Blend: CC-PVDZ-JKFIT
   => B3LYP Composite Functional <=
  Basis Set: 6-31G*
    Blend: 6-31G*
   => B3LYP Composite Functional <=
  Basis Set: (6-31G* AUX)
    Blend: CC-PVDZ-JKFIT
  @DF-RKS Final Energy:  -381.46899751117547
    Total Energy =                       -381.4689975111754734
  Basis Set: 6-31G*
    Blend: 6-31G*
  Basis Set: (6-31G* AUX)
  @DF-RKS Final Energy:  -381.46926020423570
    Total Energy =                       -381.4692602042356953
  @DF-RKS Final Energy:  -381.46926987922291
    Total Energy =                       -381.4692698792229635
   => B3LYP Composite Functional <=
  Basis Set: (6-31G* AUX)
    Blend: CC-PVDZ-JKFIT
  @DF-RKS Final Energy:  -381.46927534465789
    Total Energy =                       -381.4692753446578877
  Basis Set: 6-31G*
    Blend: 6-31G*
  Basis Set: (6-31G* AUX)
    Blend: CC-PVDZ-JKFIT
   => B3LYP Composite Functional <=
  Charge       = 1
  Multiplicity = 1
  Basis Set: 6-31G*
    Blend: 6-31G*
   => B3LYP Composite Functional <=
  Basis Set: (6-31G* AUX)
    Blend: CC-PVDZ-JKFIT

    Orbital Energies (a.u.)
    -----------------------

    Doubly Occupied:

       1A    -14.566407     2A    -14.566149     3A    -10.497133
       4A    -10.375243     5A    -10.358568     6A    -10.358350
       7A    -10.345282     8A    -10.341990     9A    -10.341870
      10A     -1.183022    11A     -1.090134    12A     -1.015770
      13A     -0.927873    14A     -0.904122    15A     -0.846442
      16A     -0.785671    17A     -0.775223    18A     -0.737894
      19A     -0.735550    20A     -0.688685    21A     -0.669276
      22A     -0.628773    23A     -0.613723    24A     -0.592700
      25A     -0.580778    26A     -0.574781    27A     -0.518405
      28A     -0.507888    29A     -0.499693    30A     -0.471900
      31A     -0.413005    32A     -0.407223

  @DF-RKS Final Energy:  -381.46927593960834

   => Energetics <=

    Nuclear Repulsion Energy =            416.8679619309327791
    One-Electron Energy =               -1328.8874652290517133
    Two-Electron Energy =                 574.9685226066137602
    DFT Exchange-Correlation Energy =     -44.4065683981031327
    Empirical Dispersion Energy =          -0.0117268500000000
    PCM Polarization Energy =               0.0000000000000000
    EFP Energy =                            0.0000000000000000
    Total Energy =                       -381.4692759396082806
    Molecular point group: c1
  Basis Set: 6-31G*
    Blend: 6-31G*
  Basis Set: (6-31G* AUX)
    Blend: CC-PVDZ-JKFIT
   => B3LYP Composite Functional <=

  -Total Gradient:
     Atom            X                  Y                   Z
    ------   -----------------  -----------------  -----------------
       1       -0.003714105257     0.000616032078    -0.000119293280
       2        0.003417989242    -0.001169819075     0.000097939546
       3        0.000012711693    -0.000000108117    -0.000003356270
       4        0.000001444504    -0.000004693293     0.000012996943
       5        0.000004040799    -0.000004391171     0.000010793712
       6       -0.000008409767     0.000016804347    -0.000022510888
       7       -0.002658775969     0.002964976815    -0.000063419947
       8       -0.000000008302     0.000010780119    -0.000006766803
       9       -0.000001298094     0.000003895807    -0.000006013209
      10       -0.000001336311     0.000000425760    -0.000003501018
      11       -0.000001194455    -0.000000676897    -0.000005561277
      12       -0.000006772647     0.000000005060    -0.000000968652
      13        0.002977268566    -0.002387529466     0.000078723899
      14        0.000009519811    -0.000012273823     0.000011691524
      15       -0.000009699592     0.000001823925    -0.000000452881
      16       -0.000016668049    -0.000004823386     0.000006176824
      17       -0.000000724666    -0.000010828937    -0.000002707841
      18        0.000006754490    -0.000012333265     0.000002647560

  **** Optimization is complete! (in 6 steps) ****
    Final optimized geometry and variables:
    Molecular point group: c1

    Geometry (in Angstrom), charge = 1, multiplicity = 1:

    C           -0.043764827588     0.017675947232    -0.192570904778
    C            0.334340877833     1.174228197226     0.517858802236
    C            0.361013618252     1.160048036368     1.907759954133
    C            0.023777002485    -0.005451976486     2.602707335359
    C           -0.338114720245    -1.161711455686     1.905475897700
    C           -0.366610167989    -1.157045491511     0.515147256362
    C           -0.017197500373     0.008168436621    -1.658817786394
    H            0.544191353654     2.103962448836    -0.003393170848
    H            0.634869495186     2.059463606848     2.449457740148
    H            0.046966909453    -0.013507866329     3.688057496711
    H           -0.581127611354    -2.071421653495     2.444714291897
    H           -0.588207932261    -2.081487178567    -0.009754894622
    N           -0.724016963892    -0.892288539908    -2.340509737252
    N            0.754359188647     0.865402545486    -2.324361521951
    H            0.746285534324     0.933611425969    -3.334894934388
    H            1.447521171357     1.416119736294    -1.836630024105
    H           -1.458038592765    -1.416864400312    -1.884201592562
    H           -0.659714872244    -0.983907080804    -3.347194250614

  Mulliken Charges: (a.u.)
   Center  Symbol    Alpha    Beta     Spin     Total
       1     C     2.94353  2.94353  0.00000  0.11294
       2     C     3.08709  3.08709  0.00000 -0.17418
       3     C     3.06226  3.06226  0.00000 -0.12452
       4     C     3.05124  3.05124  0.00000 -0.10249
       5     C     3.06154  3.06154  0.00000 -0.12309
       6     C     3.08381  3.08381  0.00000 -0.16763
       7     C     2.71253  2.71253  0.00000  0.57494
       8     H     0.41591  0.41591  0.00000  0.16818
       9     H     0.40512  0.40512  0.00000  0.18976
      10     H     0.40316  0.40316  0.00000  0.19369
      11     H     0.40509  0.40509  0.00000  0.18981
      12     H     0.41645  0.41645  0.00000  0.16709
      13     N     3.86981  3.86981  0.00000 -0.73961
      14     N     3.86912  3.86912  0.00000 -0.73824
      15     H     0.30586  0.30586  0.00000  0.38828
      16     H     0.30065  0.30065  0.00000  0.39870
      17     H     0.30091  0.30091  0.00000  0.39819
      18     H     0.30591  0.30591  0.00000  0.38818

   Total alpha = 32.00000, Total beta = 32.00000, Total charge =  1.00000

*** Psi4 exiting successfully. Buy a developer a beer!
