                               Psi4 1.1 release

  ==> Input File <==

--------------------------------------------------------------------------
set_num_threads( 8 )
memory 2.000000 gb

set { reference rks }
set { basis cc-pVDZ }

molecule MOL {
    0 1
    noreorient
    nocom
    symmetry c1
    O    1.141000   0.017000   0.083000
    C    2.558000   0.086000  -0.005000
    C    3.192000  -0.789000   1.067000
    O    4.610000  -0.719000   0.979000
    H    0.789000   0.590000  -0.620000
    H    2.874000   1.128000   0.115000
    H    2.871000  -0.243000  -1.001000
    H    2.876000  -1.830000   0.947000
    H    2.879000  -0.459000   2.064000
    H    4.933969  -1.636549   0.973167
}

set optking { frozen_dihedral = (" 1 2 3 4, 2 3 4 10 ") }

energy, wfn = energy('B3LYP-D3', return_wfn=True)

import os
os.chdir(os.environ['HTMD_PSI4_WORKDIR'])

oeprop(wfn, 'DIPOLE', 'QUADRUPOLE', 'MULLIKEN_CHARGES')

with open('psi4out.xyz', 'w') as f:
    f.write('10 ' )
    f.write('%.12f\n' % energy)
    f.write(MOL.save_string_xyz())
--------------------------------------------------------------------------

    Molecular point group: c1

    Geometry (in Angstrom), charge = 0, multiplicity = 1:

       Center              X                  Y                   Z               Mass
    ------------   -----------------  -----------------  -----------------  -----------------
           O          1.141000000000     0.017000000000     0.083000000000    15.994914619560
           C          2.558000000000     0.086000000000    -0.005000000000    12.000000000000
           C          3.192000000000    -0.789000000000     1.067000000000    12.000000000000
           O          4.610000000000    -0.719000000000     0.979000000000    15.994914619560
           H          0.789000000000     0.590000000000    -0.620000000000     1.007825032070
           H          2.874000000000     1.128000000000     0.115000000000     1.007825032070
           H          2.871000000000    -0.243000000000    -1.001000000000     1.007825032070
           H          2.876000000000    -1.830000000000     0.947000000000     1.007825032070
           H          2.879000000000    -0.459000000000     2.064000000000     1.007825032070
           H          4.933969000000    -1.636549000000     0.973167000000     1.007825032070

  Charge       = 0
  Multiplicity = 1
  Basis Set: CC-PVDZ
    Blend: CC-PVDZ
   => B3LYP Composite Functional <=
  Basis Set: (CC-PVDZ AUX)
    Blend: CC-PVDZ-JKFIT

    Orbital Energies (a.u.)
    -----------------------

    Doubly Occupied:

       1A    -19.132886     2A    -19.130628     3A    -10.226627
       4A    -10.224121     5A     -1.019182     6A     -1.008613
       7A     -0.731228     8A     -0.605623     9A     -0.525892
      10A     -0.489759    11A     -0.460041    12A     -0.418308
      13A     -0.395638    14A     -0.342651    15A     -0.322096
      16A     -0.267038    17A     -0.263210

  @DF-RKS Final Energy:  -230.25675990052284

   => Energetics <=

    Nuclear Repulsion Energy =            129.5293522763388410
    One-Electron Energy =                -570.8121438378509538
    Two-Electron Energy =                 235.5696314325919616
    DFT Exchange-Correlation Energy =     -24.5391693116026701
    Empirical Dispersion Energy =          -0.0044304600000000
    PCM Polarization Energy =               0.0000000000000000
    EFP Energy =                            0.0000000000000000
    Total Energy =                       -230.2567599005228374

  Mulliken Charges: (a.u.)
   Center  Symbol    Alpha    Beta     Spin     Total
       1     O     4.14093  4.14093  0.00000 -0.28185
       2     C     2.93538  2.93538  0.00000  0.12924
       3     C     2.93757  2.93757  0.00000  0.12485
       4     O     4.14017  4.14017  0.00000 -0.28035
       5     H     0.42783  0.42783  0.00000  0.14433
       6     H     0.49759  0.49759  0.00000  0.00483
       7     H     0.50275  0.50275  0.00000 -0.00550
       8     H     0.49760  0.49760  0.00000  0.00479
       9     H     0.49316  0.49316  0.00000  0.01368
      10     H     0.42701  0.42701  0.00000  0.14598

   Total alpha = 17.00000, Total beta = 17.00000, Total charge =  0.00000

*** Psi4 exiting successfully. Buy a developer a beer!
