                               Psi4 1.1 release

  ==> Input File <==

--------------------------------------------------------------------------
set_num_threads(1)
set_memory(4203741184)

set { reference rks }
set { basis cc-pVDZ }

molecule MOL {
    0 1
    noreorient
    nocom
    symmetry c1
    O    1.141000   0.017000   0.083000
    C    2.558000   0.086000  -0.005000
    C    3.192000  -0.789000   1.067000
    O    4.610000  -0.719000   0.979000
    H    0.789000   0.590000  -0.620000
    H    2.874000   1.128000   0.115000
    H    2.871000  -0.243000  -1.001000
    H    2.876000  -1.830000   0.947000
    H    2.879000  -0.459000   2.064000
    H    4.900993  -0.095824   1.667376
}

set optking { frozen_dihedral = (" 2 3 4 10 ") }

energy, wfn = energy('B3LYP-D3', return_wfn=True)

import os
os.chdir(os.environ['HTMD_PSI4_WORKDIR'])

oeprop(wfn, 'DIPOLE', 'QUADRUPOLE', 'MULLIKEN_CHARGES')

with open('psi4out.xyz', 'w') as f:
    f.write('10 ' )
    f.write('%.12f\n' % energy)
    f.write(MOL.save_string_xyz())
--------------------------------------------------------------------------

    Molecular point group: c1

    Geometry (in Angstrom), charge = 0, multiplicity = 1:

       Center              X                  Y                   Z               Mass
    ------------   -----------------  -----------------  -----------------  -----------------
           O          1.141000000000     0.017000000000     0.083000000000    15.994914619560
           C          2.558000000000     0.086000000000    -0.005000000000    12.000000000000
           C          3.192000000000    -0.789000000000     1.067000000000    12.000000000000
           O          4.610000000000    -0.719000000000     0.979000000000    15.994914619560
           H          0.789000000000     0.590000000000    -0.620000000000     1.007825032070
           H          2.874000000000     1.128000000000     0.115000000000     1.007825032070
           H          2.871000000000    -0.243000000000    -1.001000000000     1.007825032070
           H          2.876000000000    -1.830000000000     0.947000000000     1.007825032070
           H          2.879000000000    -0.459000000000     2.064000000000     1.007825032070
           H          4.900993000000    -0.095824000000     1.667376000000     1.007825032070

  Charge       = 0
  Multiplicity = 1
  Basis Set: CC-PVDZ
    Blend: CC-PVDZ
   => B3LYP Composite Functional <=
  Basis Set: (CC-PVDZ AUX)
    Blend: CC-PVDZ-JKFIT

    Orbital Energies (a.u.)
    -----------------------

    Doubly Occupied:

       1A    -19.134536     2A    -19.130845     3A    -10.227092
       4A    -10.223974     5A     -1.020267     6A     -1.009189
       7A     -0.730787     8A     -0.609554     9A     -0.523942
      10A     -0.493543    11A     -0.452838    12A     -0.425826
      13A     -0.396801    14A     -0.337849    15A     -0.325623
      16A     -0.269680    17A     -0.263941

  @DF-RKS Final Energy:  -230.25769067746441

   => Energetics <=

    Nuclear Repulsion Energy =            129.6601197741167084
    One-Electron Energy =                -571.0501085213338683
    Two-Electron Energy =                 235.6756583060482058
    DFT Exchange-Correlation Energy =     -24.5388375662954488
    Empirical Dispersion Energy =          -0.0045226700000000
    PCM Polarization Energy =               0.0000000000000000
    EFP Energy =                            0.0000000000000000
    Total Energy =                       -230.2576906774644101

  Mulliken Charges: (a.u.)
   Center  Symbol    Alpha    Beta     Spin     Total
       1     O     4.14094  4.14094  0.00000 -0.28188
       2     C     2.93669  2.93669  0.00000  0.12662
       3     C     2.93571  2.93571  0.00000  0.12857
       4     O     4.13974  4.13974  0.00000 -0.27947
       5     H     0.42815  0.42815  0.00000  0.14369
       6     H     0.50653  0.50653  0.00000 -0.01306
       7     H     0.49803  0.49803  0.00000  0.00393
       8     H     0.48862  0.48862  0.00000  0.02277
       9     H     0.49711  0.49711  0.00000  0.00578
      10     H     0.42847  0.42847  0.00000  0.14306

   Total alpha = 17.00000, Total beta = 17.00000, Total charge =  0.00000

*** Psi4 exiting successfully. Buy a developer a beer!
