                               Psi4 1.1 release

  ==> Input File <==

--------------------------------------------------------------------------
set_num_threads( 8 )
memory 2.000000 gb

set { reference rks }
set { basis 6-31G* }

molecule MOL {
    1 1
    noreorient
    nocom
    symmetry c1
    C    0.000000   0.000000  -0.170000
    C    0.007000   1.210000   0.523000
    C    0.000000   1.205000   1.904000
    C    0.000000   0.000000   2.592000
    C    0.000000  -1.205000   1.904000
    C   -0.007000  -1.210000   0.523000
    C    0.000000   0.000000  -1.643000
    H   -0.019000   2.146000  -0.006000
    H   -0.011000   2.134000   2.442000
    H    0.000000   0.000000   3.666000
    H    0.011000  -2.134000   2.442000
    H    0.019000  -2.146000  -0.006000
    N   -0.741000  -0.864000  -2.296000
    N    0.741000   0.864000  -2.296000
    H    0.721000   0.947000  -3.291000
    H    1.404000   1.427000  -1.808000
    H   -1.404000  -1.427000  -1.808000
    H   -0.721000  -0.947000  -3.291000
}

set optking { dynamic_level = 1 }

energy, wfn = optimize('B3LYP-D3', return_wfn=True)

import os
os.chdir(os.environ['HTMD_PSI4_WORKDIR'])

oeprop(wfn, 'DIPOLE', 'QUADRUPOLE', 'MULLIKEN_CHARGES')

with open('psi4out.xyz', 'w') as f:
    f.write('18 ' )
    f.write('%.12f\n' % energy)
    f.write(MOL.save_string_xyz())
--------------------------------------------------------------------------

    Molecular point group: c1
  Charge       = 1
  Multiplicity = 1
  Basis Set: 6-31G*
    Blend: 6-31G*
   => B3LYP Composite Functional <=
  Basis Set: (6-31G* AUX)
    Blend: CC-PVDZ-JKFIT
  @DF-RKS Final Energy:  -381.46781943524525
    Total Energy =                       -381.4678194352453033
    Molecular point group: c1
  Basis Set: 6-31G*
    Blend: 6-31G*
  Basis Set: (6-31G* AUX)
    Blend: CC-PVDZ-JKFIT
   => B3LYP Composite Functional <=
  Basis Set: 6-31G*
    Blend: 6-31G*
   => B3LYP Composite Functional <=
  Basis Set: (6-31G* AUX)
    Blend: CC-PVDZ-JKFIT
  @DF-RKS Final Energy:  -381.47041477271438
    Total Energy =                       -381.4704147727143777
  Basis Set: 6-31G*
    Blend: 6-31G*
  Basis Set: (6-31G* AUX)
  @DF-RKS Final Energy:  -381.47049075068117
    Total Energy =                       -381.4704907506811651
  @DF-RKS Final Energy:  -381.47050699854867
    Total Energy =                       -381.4705069985487285
   => B3LYP Composite Functional <=
  Basis Set: (6-31G* AUX)
    Blend: CC-PVDZ-JKFIT
  @DF-RKS Final Energy:  -381.47050910343870
    Total Energy =                       -381.4705091034387010
  Basis Set: 6-31G*
    Blend: 6-31G*
  Basis Set: (6-31G* AUX)
    Blend: CC-PVDZ-JKFIT
   => B3LYP Composite Functional <=
  Charge       = 1
  Multiplicity = 1
  Basis Set: 6-31G*
    Blend: 6-31G*
   => B3LYP Composite Functional <=
  Basis Set: (6-31G* AUX)
    Blend: CC-PVDZ-JKFIT

    Orbital Energies (a.u.)
    -----------------------

    Doubly Occupied:

       1A    -14.568043     2A    -14.568036     3A    -10.497180
       4A    -10.373175     5A    -10.356122     6A    -10.356113
       7A    -10.342965     8A    -10.340403     9A    -10.340346
      10A     -1.183828    11A     -1.091958    12A     -1.014244
      13A     -0.926589    14A     -0.902174    15A     -0.845401
      16A     -0.785712    17A     -0.773381    18A     -0.741668
      19A     -0.732896    20A     -0.688868    21A     -0.669057
      22A     -0.625497    23A     -0.617233    24A     -0.586921
      25A     -0.579015    26A     -0.572821    27A     -0.518317
      28A     -0.505465    29A     -0.498054    30A     -0.472890
      31A     -0.411668    32A     -0.405682

  @DF-RKS Final Energy:  -381.47050946065991

   => Energetics <=

    Nuclear Repulsion Energy =            416.9186407666193759
    One-Electron Energy =               -1329.0469465395804036
    Two-Electron Energy =                 575.0756909435056059
    DFT Exchange-Correlation Energy =     -44.4059625112044642
    Empirical Dispersion Energy =          -0.0119321200000000
    PCM Polarization Energy =               0.0000000000000000
    EFP Energy =                            0.0000000000000000
    Total Energy =                       -381.4705094606599118
    Molecular point group: c1
  Basis Set: 6-31G*
    Blend: 6-31G*
  Basis Set: (6-31G* AUX)
    Blend: CC-PVDZ-JKFIT
   => B3LYP Composite Functional <=

  -Total Gradient:
     Atom            X                  Y                   Z
    ------   -----------------  -----------------  -----------------
       1        0.000000004131    -0.000000184140    -0.000055729280
       2        0.000007748689     0.000001714788     0.000014233240
       3       -0.000008331370     0.000008660524     0.000002515447
       4       -0.000000000437    -0.000000002450     0.000010129782
       5        0.000008330428    -0.000008670001     0.000002436080
       6       -0.000007750671    -0.000001677653     0.000014249300
       7        0.000000014809     0.000000072784     0.000043763222
       8       -0.000004243496    -0.000001395322     0.000001905479
       9        0.000003621978    -0.000003374692    -0.000004477359
      10       -0.000000000534     0.000000000076    -0.000004137823
      11       -0.000003621716     0.000003391509    -0.000004492196
      12        0.000004237819     0.000001450140     0.000001932945
      13       -0.000040881352    -0.000003520691    -0.000037999115
      14        0.000040869676     0.000003527646    -0.000038001105
      15       -0.000010338621    -0.000002528621     0.000017677917
      16       -0.000017210655    -0.000000330069    -0.000001321791
      17        0.000017214152     0.000000336951    -0.000001325258
      18        0.000010337157     0.000002529180     0.000017678013

  **** Optimization is complete! (in 6 steps) ****
    Final optimized geometry and variables:
    Molecular point group: c1

    Geometry (in Angstrom), charge = 1, multiplicity = 1:

    C            0.000000213325     0.000000036693    -0.177864285032
    C            0.036677636465     1.219374399289     0.524164957313
    C            0.031764326938     1.213119434994     1.915444175122
    C           -0.000000079495    -0.000000009041     2.610106600822
    C           -0.031764364375    -1.213119453476     1.915444134781
    C           -0.036677421883    -1.219374365653     0.524164918707
    C            0.000000129540    -0.000000054433    -1.644733536042
    H            0.018170102637     2.164704759816    -0.010853231970
    H            0.042401505516     2.152894876832     2.457885788848
    H           -0.000000199878    -0.000000030797     3.695756016917
    H           -0.042401687620    -2.152894923777     2.457885712344
    H           -0.018169904148    -2.164704711389    -0.010853311434
    N           -0.712589702952    -0.905950063645    -2.308460476201
    N            0.712589706591     0.905950029641    -2.308460630517
    H            0.673431800504     1.006469475717    -3.315996938073
    H            1.377189601440     1.485969826465    -1.813316690741
    H           -1.377189582705    -1.485969776252    -1.813316393252
    H           -0.673432079900    -1.006469450983    -3.315996811592

  Mulliken Charges: (a.u.)
   Center  Symbol    Alpha    Beta     Spin     Total
       1     C     2.95717  2.95717  0.00000  0.08566
       2     C     3.08208  3.08208  0.00000 -0.16415
       3     C     3.06249  3.06249  0.00000 -0.12497
       4     C     3.05148  3.05148  0.00000 -0.10295
       5     C     3.06249  3.06249  0.00000 -0.12497
       6     C     3.08208  3.08208  0.00000 -0.16415
       7     C     2.72193  2.72193  0.00000  0.55615
       8     H     0.41420  0.41420  0.00000  0.17160
       9     H     0.40544  0.40544  0.00000  0.18911
      10     H     0.40389  0.40389  0.00000  0.19223
      11     H     0.40544  0.40544  0.00000  0.18911
      12     H     0.41420  0.41420  0.00000  0.17160
      13     N     3.86323  3.86323  0.00000 -0.72645
      14     N     3.86323  3.86323  0.00000 -0.72645
      15     H     0.30570  0.30570  0.00000  0.38861
      16     H     0.29964  0.29964  0.00000  0.40071
      17     H     0.29964  0.29964  0.00000  0.40071
      18     H     0.30570  0.30570  0.00000  0.38861

   Total alpha = 32.00000, Total beta = 32.00000, Total charge =  1.00000

*** Psi4 exiting successfully. Buy a developer a beer!
