                              Psi4 1.0.54 Driver

  ==> Input File <==

--------------------------------------------------------------------------
set_num_threads(1)
set_memory(3145728000)

set { reference rks }
set { basis 6-31G* }

molecule MOL {
    1 1
    noreorient
    nocom
    symmetry c1
    C    0.000000   0.000000  -0.170000
    C    0.007000   1.210000   0.523000
    C    0.000000   1.205000   1.904000
    C    0.000000   0.000000   2.592000
    C    0.000000  -1.205000   1.904000
    C   -0.007000  -1.210000   0.523000
    C    0.000000   0.000000  -1.643000
    H   -0.019000   2.146000  -0.006000
    H   -0.011000   2.134000   2.442000
    H    0.000000   0.000000   3.666000
    H    0.011000  -2.134000   2.442000
    H    0.019000  -2.146000  -0.006000
    N   -0.741000  -0.864000  -2.296000
    N    0.741000   0.864000  -2.296000
    H    0.721000   0.947000  -3.291000
    H    1.404000   1.427000  -1.808000
    H   -1.404000  -1.427000  -1.808000
    H   -0.721000  -0.947000  -3.291000
}

set optking { dynamic_level = 1
 geom_maxiter = 250
 print_trajectory_xyz_file = True }

energy, wfn = optimize('B3LYP-D3', return_wfn=True)

import os
os.chdir(os.environ['HTMD_PSI4_WORKDIR'])

oeprop(wfn, 'DIPOLE', 'QUADRUPOLE', 'MULLIKEN_CHARGES')

with open('psi4out.xyz', 'w') as f:
    f.write('18 ' )
    f.write('%.12f\n' % energy)
    f.write(MOL.save_string_xyz())
--------------------------------------------------------------------------

    Molecular point group: c1
  Charge       = 1
  Multiplicity = 1
  Basis Set: 6-31G*
   => B3LYP-D3 Composite Functional <=
  Basis Set:
  @DF-RKS Final Energy:  -381.46781943489276
    Total Energy =                       -381.4678194348927605
    Molecular point group: c1
  Basis Set: 6-31G*
  Basis Set:
   => B3LYP-D3 Composite Functional <=
  Basis Set: 6-31G*
   => B3LYP-D3 Composite Functional <=
  Basis Set:
  @DF-RKS Final Energy:  -381.47041476897118
    Total Energy =                       -381.4704147689711817
  Basis Set: 6-31G*
  Basis Set:
   => B3LYP-D3 Composite Functional <=
  Basis Set: 6-31G*
   => B3LYP-D3 Composite Functional <=
  Basis Set:
  @DF-RKS Final Energy:  -381.47049075008823
    Total Energy =                       -381.4704907500882314
  Basis Set: 6-31G*
  Basis Set:
   => B3LYP-D3 Composite Functional <=
  Basis Set:
  @DF-RKS Final Energy:  -381.47050699853020
    Total Energy =                       -381.4705069985300838
  Basis Set: 6-31G*
  Basis Set:
   => B3LYP-D3 Composite Functional <=
  Basis Set: 6-31G*
   => B3LYP-D3 Composite Functional <=
  Basis Set:
  @DF-RKS Final Energy:  -381.47050910274652
    Total Energy =                       -381.4705091027465187
  Basis Set: 6-31G*
  Basis Set:
   => B3LYP-D3 Composite Functional <=
  Charge       = 1
  Multiplicity = 1
  Basis Set: 6-31G*
   => B3LYP-D3 Composite Functional <=
  Basis Set:

    Orbital Energies (a.u.)
    -----------------------

    Doubly Occupied:

       1A    -14.568043     2A    -14.568036     3A    -10.497180
       4A    -10.373175     5A    -10.356122     6A    -10.356113
       7A    -10.342965     8A    -10.340403     9A    -10.340346
      10A     -1.183828    11A     -1.091958    12A     -1.014244
      13A     -0.926589    14A     -0.902174    15A     -0.845401
      16A     -0.785712    17A     -0.773381    18A     -0.741668
      19A     -0.732896    20A     -0.688868    21A     -0.669057
      22A     -0.625497    23A     -0.617233    24A     -0.586921
      25A     -0.579015    26A     -0.572821    27A     -0.518317
      28A     -0.505465    29A     -0.498054    30A     -0.472890
      31A     -0.411668    32A     -0.405682

  @DF-RKS Final Energy:  -381.47050946072960

   => Energetics <=

    Nuclear Repulsion Energy =            416.9186373693779046
    One-Electron Energy =               -1329.0469398489617561
    Two-Electron Energy =                 575.0756875665781536
    DFT Exchange-Correlation Energy =     -44.4059624277239706
    Empirical Dispersion Energy =          -0.0119321200000000
    PCM Polarization Energy =               0.0000000000000000
    EFP Energy =                            0.0000000000000000
    Total Energy =                       -381.4705094607297156
    Molecular point group: c1
  Basis Set: 6-31G*
  Basis Set:
   => B3LYP-D3 Composite Functional <=

  -Total Gradient:
     Atom            X                  Y                   Z
    ------   -----------------  -----------------  -----------------
       1        0.000000007978     0.000000071577    -0.000056006163
       2        0.000007752697     0.000001723225     0.000014245215
       3       -0.000008329163     0.000008753826     0.000002478895
       4        0.000000001073     0.000000042075     0.000010215633
       5        0.000008328002    -0.000008741707     0.000002510804
       6       -0.000007755061    -0.000001723970     0.000014185960
       7        0.000000015292    -0.000000037718     0.000043881283
       8       -0.000004244042    -0.000001369494     0.000001888868
       9        0.000003622055    -0.000003308072    -0.000004434872
      10       -0.000000000670    -0.000000004339    -0.000004013940
      11       -0.000003623822     0.000003253910    -0.000004404927
      12        0.000004239664     0.000001336289     0.000001861267
      13       -0.000040890519    -0.000003545348    -0.000038010970
      14        0.000040887483     0.000003553977    -0.000038004270
      15       -0.000010344023    -0.000002522258     0.000017623040
      16       -0.000017175161    -0.000000303614    -0.000001298978
      17        0.000017166502     0.000000298273    -0.000001294350
      18        0.000010341693     0.000002523313     0.000017615067

  **** Optimization is complete! (in 6 steps) ****
    Final optimized geometry and variables:
    Molecular point group: c1

    Geometry (in Angstrom), charge = 1, multiplicity = 1:

    C            0.000000187791     0.000000149529    -0.177864289105
    C            0.036677675084     1.219374479027     0.524165012292
    C            0.031764377064     1.213119474984     1.915444206124
    C           -0.000000082008    -0.000000015167     2.610106637689
    C           -0.031764414783    -1.213119487313     1.915444123037
    C           -0.036677455424    -1.219374304961     0.524164877458
    C            0.000000113745    -0.000000051953    -1.644733529154
    H            0.018170173816     2.164704812410    -0.010853184297
    H            0.042401596715     2.152894885694     2.457885878136
    H           -0.000000209112    -0.000000074783     3.695756118532
    H           -0.042401794686    -2.152895006289     2.457885724113
    H           -0.018169964528    -2.164704600697    -0.010853491175
    N           -0.712589617271    -0.905950170297    -2.308460449986
    N            0.712589633849     0.905950051143    -2.308460668692
    H            0.673431646712     1.006469435378    -3.315996966782
    H            1.377189625181     1.485969776630    -1.813316805066
    H           -1.377189636832    -1.485969757047    -1.813316421346
    H           -0.673431855314    -1.006469596288    -3.315996771779

  Mulliken Charges: (a.u.)
   Center  Symbol    Alpha    Beta     Spin     Total
       1     C     2.95717  2.95717  0.00000  0.08566
       2     C     3.08208  3.08208  0.00000 -0.16415
       3     C     3.06249  3.06249  0.00000 -0.12497
       4     C     3.05148  3.05148  0.00000 -0.10295
       5     C     3.06249  3.06249  0.00000 -0.12497
       6     C     3.08208  3.08208  0.00000 -0.16415
       7     C     2.72193  2.72193  0.00000  0.55615
       8     H     0.41420  0.41420  0.00000  0.17160
       9     H     0.40544  0.40544  0.00000  0.18911
      10     H     0.40389  0.40389  0.00000  0.19223
      11     H     0.40544  0.40544  0.00000  0.18911
      12     H     0.41420  0.41420  0.00000  0.17160
      13     N     3.86323  3.86323  0.00000 -0.72645
      14     N     3.86323  3.86323  0.00000 -0.72645
      15     H     0.30570  0.30570  0.00000  0.38861
      16     H     0.29964  0.29964  0.00000  0.40071
      17     H     0.29964  0.29964  0.00000  0.40071
      18     H     0.30570  0.30570  0.00000  0.38861

   Total alpha = 32.00000, Total beta = 32.00000, Total charge =  1.00000

*** Psi4 exiting successfully. Buy a developer a beer!
