                               Psi4 1.1 release

  ==> Input File <==

--------------------------------------------------------------------------
set_num_threads( 8 )
memory 2.000000 gb

set { reference rks }
set { basis 6-31G* }

molecule MOL {
    1 1
    noreorient
    nocom
    symmetry c1
    C    0.000000   0.000000  -0.170000
    C    0.007000   1.210000   0.523000
    C    0.000000   1.205000   1.904000
    C    0.000000   0.000000   2.592000
    C    0.000000  -1.205000   1.904000
    C   -0.007000  -1.210000   0.523000
    C    0.000000   0.000000  -1.643000
    H   -0.019000   2.146000  -0.006000
    H   -0.011000   2.134000   2.442000
    H    0.000000   0.000000   3.666000
    H    0.011000  -2.134000   2.442000
    H    0.019000  -2.146000  -0.006000
    N   -0.741000  -0.864000  -2.296000
    N    0.741000   0.864000  -2.296000
    H    0.721000   0.947000  -3.291000
    H    1.404000   1.427000  -1.808000
    H   -1.404000  -1.427000  -1.808000
    H   -0.721000  -0.947000  -3.291000
}

set optking { dynamic_level = 1 }

energy, wfn = optimize('B3LYP-D3', return_wfn=True)

import os
os.chdir(os.environ['HTMD_PSI4_WORKDIR'])

oeprop(wfn, 'DIPOLE', 'QUADRUPOLE', 'MULLIKEN_CHARGES')

with open('psi4out.xyz', 'w') as f:
    f.write('18 ' )
    f.write('%.12f\n' % energy)
    f.write(MOL.save_string_xyz())
--------------------------------------------------------------------------

    Molecular point group: c1
  Charge       = 1
  Multiplicity = 1
  Basis Set: 6-31G*
    Blend: 6-31G*
   => B3LYP Composite Functional <=
  Basis Set: (6-31G* AUX)
    Blend: CC-PVDZ-JKFIT
  @DF-RKS Final Energy:  -381.46781943524525
    Total Energy =                       -381.4678194352453033
    Molecular point group: c1
  Basis Set: 6-31G*
    Blend: 6-31G*
  Basis Set: (6-31G* AUX)
    Blend: CC-PVDZ-JKFIT
   => B3LYP Composite Functional <=
  Basis Set: 6-31G*
    Blend: 6-31G*
   => B3LYP Composite Functional <=
  Basis Set: (6-31G* AUX)
    Blend: CC-PVDZ-JKFIT
  @DF-RKS Final Energy:  -381.47041477221313
    Total Energy =                       -381.4704147722131324
  Basis Set: 6-31G*
    Blend: 6-31G*
  Basis Set: (6-31G* AUX)
  @DF-RKS Final Energy:  -381.47049075045169
    Total Energy =                       -381.4704907504516882
  @DF-RKS Final Energy:  -381.47050699877002
    Total Energy =                       -381.4705069987700767
   => B3LYP Composite Functional <=
  Basis Set: (6-31G* AUX)
    Blend: CC-PVDZ-JKFIT
  @DF-RKS Final Energy:  -381.47050910378778
    Total Energy =                       -381.4705091037877196
  Basis Set: 6-31G*
    Blend: 6-31G*
  Basis Set: (6-31G* AUX)
    Blend: CC-PVDZ-JKFIT
   => B3LYP Composite Functional <=
  Charge       = 1
  Multiplicity = 1
  Basis Set: 6-31G*
    Blend: 6-31G*
   => B3LYP Composite Functional <=
  Basis Set: (6-31G* AUX)
    Blend: CC-PVDZ-JKFIT

    Orbital Energies (a.u.)
    -----------------------

    Doubly Occupied:

       1A    -14.568043     2A    -14.568036     3A    -10.497180
       4A    -10.373175     5A    -10.356122     6A    -10.356113
       7A    -10.342965     8A    -10.340403     9A    -10.340346
      10A     -1.183828    11A     -1.091958    12A     -1.014244
      13A     -0.926589    14A     -0.902174    15A     -0.845401
      16A     -0.785712    17A     -0.773381    18A     -0.741668
      19A     -0.732896    20A     -0.688868    21A     -0.669057
      22A     -0.625497    23A     -0.617233    24A     -0.586921
      25A     -0.579015    26A     -0.572821    27A     -0.518317
      28A     -0.505465    29A     -0.498054    30A     -0.472890
      31A     -0.411668    32A     -0.405682

  @DF-RKS Final Energy:  -381.47050946134135

   => Energetics <=

    Nuclear Repulsion Energy =            416.9186386349169879
    One-Electron Energy =               -1329.0469424464390613
    Two-Electron Energy =                 575.0756889120476671
    DFT Exchange-Correlation Energy =     -44.4059624418669330
    Empirical Dispersion Energy =          -0.0119321200000000
    PCM Polarization Energy =               0.0000000000000000
    EFP Energy =                            0.0000000000000000
    Total Energy =                       -381.4705094613412939
    Molecular point group: c1
  Basis Set: 6-31G*
    Blend: 6-31G*
  Basis Set: (6-31G* AUX)
    Blend: CC-PVDZ-JKFIT
   => B3LYP Composite Functional <=

  -Total Gradient:
     Atom            X                  Y                   Z
    ------   -----------------  -----------------  -----------------
       1        0.000000013105     0.000000106155    -0.000056273426
       2        0.000007754973     0.000001727903     0.000014170453
       3       -0.000008330743     0.000008746548     0.000002539544
       4        0.000000001108     0.000000005019     0.000010245303
       5        0.000008329632    -0.000008770304     0.000002580104
       6       -0.000007757360    -0.000001758513     0.000014174526
       7       -0.000000025927    -0.000000032090     0.000044034263
       8       -0.000004240527    -0.000001295439     0.000001853128
       9        0.000003624543    -0.000003218787    -0.000004383631
      10       -0.000000000674    -0.000000000111    -0.000003963035
      11       -0.000003624867     0.000003233664    -0.000004393114
      12        0.000004244206     0.000001272319     0.000001842587
      13       -0.000040855930    -0.000003526012    -0.000038005086
      14        0.000040869371     0.000003518355    -0.000038007856
      15       -0.000010339110    -0.000002516128     0.000017585961
      16       -0.000017139766    -0.000000274586    -0.000001274031
      17        0.000017134583     0.000000264927    -0.000001268146
      18        0.000010343372     0.000002517107     0.000017579958

  **** Optimization is complete! (in 6 steps) ****
    Final optimized geometry and variables:
    Molecular point group: c1

    Geometry (in Angstrom), charge = 1, multiplicity = 1:

    C           -0.000000014080     0.000000001601    -0.177864250764
    C            0.036677135714     1.219374439525     0.524164913169
    C            0.031763976151     1.213119469235     1.915444173051
    C           -0.000000009855    -0.000000021333     2.610106589999
    C           -0.031763975071    -1.213119459873     1.915444128663
    C           -0.036677131749    -1.219374416555     0.524164925711
    C           -0.000000087010     0.000000058487    -1.644733540339
    H            0.018169339713     2.164704812817    -0.010853328754
    H            0.042400985137     2.152894932464     2.457885837878
    H           -0.000000032224    -0.000000030104     3.695756022196
    H           -0.042400979818    -2.152894892142     2.457885729268
    H           -0.018169294606    -2.164704771497    -0.010853284700
    N           -0.712589392131    -0.905950310835    -2.308460544091
    N            0.712589360982     0.905950315459    -2.308460557177
    H            0.673431586365     1.006469704589    -3.315996888984
    H            1.377189151525     1.485970192561    -1.813316534325
    H           -1.377189105838    -1.485970276816    -1.813316529198
    H           -0.673431513204    -1.006469747582    -3.315996861603

  Mulliken Charges: (a.u.)
   Center  Symbol    Alpha    Beta     Spin     Total
       1     C     2.95717  2.95717  0.00000  0.08566
       2     C     3.08208  3.08208  0.00000 -0.16415
       3     C     3.06249  3.06249  0.00000 -0.12497
       4     C     3.05148  3.05148  0.00000 -0.10295
       5     C     3.06249  3.06249  0.00000 -0.12497
       6     C     3.08208  3.08208  0.00000 -0.16415
       7     C     2.72193  2.72193  0.00000  0.55615
       8     H     0.41420  0.41420  0.00000  0.17160
       9     H     0.40544  0.40544  0.00000  0.18911
      10     H     0.40389  0.40389  0.00000  0.19223
      11     H     0.40544  0.40544  0.00000  0.18911
      12     H     0.41420  0.41420  0.00000  0.17160
      13     N     3.86323  3.86323  0.00000 -0.72645
      14     N     3.86323  3.86323  0.00000 -0.72645
      15     H     0.30570  0.30570  0.00000  0.38861
      16     H     0.29964  0.29964  0.00000  0.40071
      17     H     0.29964  0.29964  0.00000  0.40071
      18     H     0.30570  0.30570  0.00000  0.38861

   Total alpha = 32.00000, Total beta = 32.00000, Total charge =  1.00000

*** Psi4 exiting successfully. Buy a developer a beer!
