                               Psi4 1.1 release

  ==> Input File <==

--------------------------------------------------------------------------
set_num_threads(1)
set_memory(4203741184)

set { reference rks }
set { basis cc-pVDZ }

molecule MOL {
    0 1
    noreorient
    nocom
    symmetry c1
    O    1.141000   0.017000   0.083000
    C    2.558000   0.086000  -0.005000
    C    3.192000  -0.789000   1.067000
    O    2.180888  -1.420051   1.843400
    H    0.789000   0.590000  -0.620000
    H    2.874000   1.128000   0.115000
    H    2.871000  -0.243000  -1.001000
    H    3.826869  -0.187624   1.725198
    H    3.822921  -1.558624   0.608201
    H    2.639039  -1.962803   2.508535
}

set optking { frozen_dihedral = (" 1 2 3 4 ") }

energy, wfn = energy('B3LYP-D3', return_wfn=True)

import os
os.chdir(os.environ['HTMD_PSI4_WORKDIR'])

oeprop(wfn, 'DIPOLE', 'QUADRUPOLE', 'MULLIKEN_CHARGES')

with open('psi4out.xyz', 'w') as f:
    f.write('10 ' )
    f.write('%.12f\n' % energy)
    f.write(MOL.save_string_xyz())
--------------------------------------------------------------------------

    Molecular point group: c1

    Geometry (in Angstrom), charge = 0, multiplicity = 1:

       Center              X                  Y                   Z               Mass
    ------------   -----------------  -----------------  -----------------  -----------------
           O          1.141000000000     0.017000000000     0.083000000000    15.994914619560
           C          2.558000000000     0.086000000000    -0.005000000000    12.000000000000
           C          3.192000000000    -0.789000000000     1.067000000000    12.000000000000
           O          2.180888000000    -1.420051000000     1.843400000000    15.994914619560
           H          0.789000000000     0.590000000000    -0.620000000000     1.007825032070
           H          2.874000000000     1.128000000000     0.115000000000     1.007825032070
           H          2.871000000000    -0.243000000000    -1.001000000000     1.007825032070
           H          3.826869000000    -0.187624000000     1.725198000000     1.007825032070
           H          3.822921000000    -1.558624000000     0.608201000000     1.007825032070
           H          2.639039000000    -1.962803000000     2.508535000000     1.007825032070

  Charge       = 0
  Multiplicity = 1
  Basis Set: CC-PVDZ
    Blend: CC-PVDZ
   => B3LYP Composite Functional <=
  Basis Set: (CC-PVDZ AUX)
    Blend: CC-PVDZ-JKFIT

    Orbital Energies (a.u.)
    -----------------------

    Doubly Occupied:

       1A    -19.121923     2A    -19.121868     3A    -10.225545
       4A    -10.225359     5A     -1.016418     6A     -0.993470
       7A     -0.733955     8A     -0.598985     9A     -0.527413
      10A     -0.477015    11A     -0.460471    12A     -0.413574
      13A     -0.392937    14A     -0.325149    15A     -0.324083
      16A     -0.268745    17A     -0.241864

  @DF-RKS Final Energy:  -230.24368951743483

   => Energetics <=

    Nuclear Repulsion Energy =            133.2924804847691291
    One-Electron Energy =                -578.5011982017363152
    Two-Electron Energy =                 239.5105064260383472
    DFT Exchange-Correlation Energy =     -24.5415052565060101
    Empirical Dispersion Energy =          -0.0039729700000000
    PCM Polarization Energy =               0.0000000000000000
    EFP Energy =                            0.0000000000000000
    Total Energy =                       -230.2436895174348308

  Mulliken Charges: (a.u.)
   Center  Symbol    Alpha    Beta     Spin     Total
       1     O     4.12838  4.12838  0.00000 -0.25676
       2     C     2.93522  2.93522  0.00000  0.12956
       3     C     2.93536  2.93536  0.00000  0.12928
       4     O     4.12860  4.12860  0.00000 -0.25721
       5     H     0.43216  0.43216  0.00000  0.13567
       6     H     0.50210  0.50210  0.00000 -0.00419
       7     H     0.50211  0.50211  0.00000 -0.00421
       8     H     0.50198  0.50198  0.00000 -0.00397
       9     H     0.50197  0.50197  0.00000 -0.00395
      10     H     0.43211  0.43211  0.00000  0.13577

   Total alpha = 17.00000, Total beta = 17.00000, Total charge =  0.00000

*** Psi4 exiting successfully. Buy a developer a beer!
