                               Psi4 1.1 release

  ==> Input File <==

--------------------------------------------------------------------------
set_num_threads( 8 )
memory 2.000000 gb

set { reference rks }
set { basis cc-pVDZ }

molecule MOL {
    0 1
    noreorient
    nocom
    symmetry c1
    O    1.050400   0.042900  -0.048100
    C    2.474100   0.047400  -0.029000
    C    3.002600  -1.068900  -0.932000
    N    4.462700  -1.072400  -1.006800
    H    0.760400   0.728400   0.578000
    H    2.809900  -0.097900   1.003200
    H    2.817400   1.026800  -0.378600
    H    2.581000  -0.963300  -1.938400
    H    2.653800  -2.036400  -0.553400
    H    4.848442  -0.875126  -0.083887
    H    4.762385  -0.302356  -1.604689
}

set optking { frozen_dihedral = (" 2 3 4 10 ") }

energy, wfn = energy('B3LYP-D3', return_wfn=True)

import os
os.chdir(os.environ['HTMD_PSI4_WORKDIR'])

oeprop(wfn, 'DIPOLE', 'QUADRUPOLE', 'MULLIKEN_CHARGES')

with open('psi4out.xyz', 'w') as f:
    f.write('11 ' )
    f.write('%.12f\n' % energy)
    f.write(MOL.save_string_xyz())
--------------------------------------------------------------------------

    Molecular point group: c1

    Geometry (in Angstrom), charge = 0, multiplicity = 1:

       Center              X                  Y                   Z               Mass
    ------------   -----------------  -----------------  -----------------  -----------------
           O          1.050400000000     0.042900000000    -0.048100000000    15.994914619560
           C          2.474100000000     0.047400000000    -0.029000000000    12.000000000000
           C          3.002600000000    -1.068900000000    -0.932000000000    12.000000000000
           N          4.462700000000    -1.072400000000    -1.006800000000    14.003074004780
           H          0.760400000000     0.728400000000     0.578000000000     1.007825032070
           H          2.809900000000    -0.097900000000     1.003200000000     1.007825032070
           H          2.817400000000     1.026800000000    -0.378600000000     1.007825032070
           H          2.581000000000    -0.963300000000    -1.938400000000     1.007825032070
           H          2.653800000000    -2.036400000000    -0.553400000000     1.007825032070
           H          4.848442000000    -0.875126000000    -0.083887000000     1.007825032070
           H          4.762385000000    -0.302356000000    -1.604689000000     1.007825032070

  Charge       = 0
  Multiplicity = 1
  Basis Set: CC-PVDZ
    Blend: CC-PVDZ
   => B3LYP Composite Functional <=
  Basis Set: (CC-PVDZ AUX)
    Blend: CC-PVDZ-JKFIT

    Orbital Energies (a.u.)
    -----------------------

    Doubly Occupied:

       1A    -19.128654     2A    -14.307876     3A    -10.225085
       4A    -10.202685     5A     -1.011345     6A     -0.879933
       7A     -0.710846     8A     -0.605347     9A     -0.507047
      10A     -0.496391    11A     -0.441873    12A     -0.419349
      13A     -0.401133    14A     -0.352179    15A     -0.331362
      16A     -0.263668    17A     -0.236100

  @DF-RKS Final Energy:  -210.39266745554002

   => Energetics <=

    Nuclear Repulsion Energy =            130.8769263055218062
    One-Electron Energy =                -544.6154293127971187
    Two-Electron Energy =                 226.8370373234903354
    DFT Exchange-Correlation Energy =     -23.4860573217550481
    Empirical Dispersion Energy =          -0.0051444500000000
    PCM Polarization Energy =               0.0000000000000000
    EFP Energy =                            0.0000000000000000
    Total Energy =                       -210.3926674555400211

  Mulliken Charges: (a.u.)
   Center  Symbol    Alpha    Beta     Spin     Total
       1     O     4.13860  4.13860  0.00000 -0.27720
       2     C     2.94244  2.94244  0.00000  0.11512
       3     C     2.97783  2.97783  0.00000  0.04434
       4     N     3.59041  3.59041  0.00000 -0.18081
       5     H     0.43095  0.43095  0.00000  0.13810
       6     H     0.50329  0.50329  0.00000 -0.00658
       7     H     0.50695  0.50695  0.00000 -0.01390
       8     H     0.48913  0.48913  0.00000  0.02174
       9     H     0.48938  0.48938  0.00000  0.02124
      10     H     0.46655  0.46655  0.00000  0.06690
      11     H     0.46448  0.46448  0.00000  0.07105

   Total alpha = 17.00000, Total beta = 17.00000, Total charge = -0.00000

*** Psi4 exiting successfully. Buy a developer a beer!
