                               Psi4 1.1 release

  ==> Input File <==

--------------------------------------------------------------------------
set_num_threads( 8 )
memory 2.000000 gb

set { reference rks }
set { basis cc-pVDZ }

molecule MOL {
    0 1
    noreorient
    nocom
    symmetry c1
    O    1.141000   0.017000   0.083000
    C    2.558000   0.086000  -0.005000
    C    3.192000  -0.789000   1.067000
    O    3.809079  -1.923043   0.469901
    H    0.789000   0.590000  -0.620000
    H    2.874000   1.128000   0.115000
    H    2.871000  -0.243000  -1.001000
    H    2.435004  -1.127076   1.781562
    H    3.946998  -0.223422   1.624653
    H    4.195230  -2.443877   1.195508
}

set optking { frozen_dihedral = (" 1 2 3 4, 2 3 4 10 ") }

energy, wfn = energy('B3LYP-D3', return_wfn=True)

import os
os.chdir(os.environ['HTMD_PSI4_WORKDIR'])

oeprop(wfn, 'DIPOLE', 'QUADRUPOLE', 'MULLIKEN_CHARGES')

with open('psi4out.xyz', 'w') as f:
    f.write('10 ' )
    f.write('%.12f\n' % energy)
    f.write(MOL.save_string_xyz())
--------------------------------------------------------------------------

    Molecular point group: c1

    Geometry (in Angstrom), charge = 0, multiplicity = 1:

       Center              X                  Y                   Z               Mass
    ------------   -----------------  -----------------  -----------------  -----------------
           O          1.141000000000     0.017000000000     0.083000000000    15.994914619560
           C          2.558000000000     0.086000000000    -0.005000000000    12.000000000000
           C          3.192000000000    -0.789000000000     1.067000000000    12.000000000000
           O          3.809079000000    -1.923043000000     0.469901000000    15.994914619560
           H          0.789000000000     0.590000000000    -0.620000000000     1.007825032070
           H          2.874000000000     1.128000000000     0.115000000000     1.007825032070
           H          2.871000000000    -0.243000000000    -1.001000000000     1.007825032070
           H          2.435004000000    -1.127076000000     1.781562000000     1.007825032070
           H          3.946998000000    -0.223422000000     1.624653000000     1.007825032070
           H          4.195230000000    -2.443877000000     1.195508000000     1.007825032070

  Charge       = 0
  Multiplicity = 1
  Basis Set: CC-PVDZ
    Blend: CC-PVDZ
   => B3LYP Composite Functional <=
  Basis Set: (CC-PVDZ AUX)
    Blend: CC-PVDZ-JKFIT

    Orbital Energies (a.u.)
    -----------------------

    Doubly Occupied:

       1A    -19.127664     2A    -19.127623     3A    -10.225547
       4A    -10.225355     5A     -1.017005     6A     -1.004107
       7A     -0.732897     8A     -0.603177     9A     -0.518678
      10A     -0.507762    11A     -0.432995    12A     -0.412062
      13A     -0.410247    14A     -0.345694    15A     -0.319732
      16A     -0.266804    17A     -0.254896

  @DF-RKS Final Energy:  -230.25364576414040

   => Energetics <=

    Nuclear Repulsion Energy =            130.3222480703366557
    One-Electron Energy =                -572.4532741288389843
    Two-Electron Energy =                 236.4228753863839358
    DFT Exchange-Correlation Energy =     -24.5412427920219862
    Empirical Dispersion Energy =          -0.0042523000000000
    PCM Polarization Energy =               0.0000000000000000
    EFP Energy =                            0.0000000000000000
    Total Energy =                       -230.2536457641404013

  Mulliken Charges: (a.u.)
   Center  Symbol    Alpha    Beta     Spin     Total
       1     O     4.13961  4.13961  0.00000 -0.27922
       2     C     2.93224  2.93224  0.00000  0.13553
       3     C     2.93235  2.93235  0.00000  0.13531
       4     O     4.13982  4.13982  0.00000 -0.27965
       5     H     0.43079  0.43079  0.00000  0.13842
       6     H     0.50327  0.50327  0.00000 -0.00654
       7     H     0.49405  0.49405  0.00000  0.01191
       8     H     0.49397  0.49397  0.00000  0.01206
       9     H     0.50317  0.50317  0.00000 -0.00634
      10     H     0.43074  0.43074  0.00000  0.13852

   Total alpha = 17.00000, Total beta = 17.00000, Total charge = -0.00000

*** Psi4 exiting successfully. Buy a developer a beer!
