                               Psi4 1.1 release

  ==> Input File <==

--------------------------------------------------------------------------
set_num_threads(1)
set_memory(4203741184)

set { reference rks }
set { basis cc-pVDZ }

molecule MOL {
    0 1
    noreorient
    nocom
    symmetry c1
    O    1.141000   0.017000   0.083000
    C    2.558000   0.086000  -0.005000
    C    3.192000  -0.789000   1.067000
    O    3.809079  -1.923043   0.469901
    H    0.789000   0.590000  -0.620000
    H    2.874000   1.128000   0.115000
    H    2.871000  -0.243000  -1.001000
    H    2.435004  -1.127076   1.781562
    H    3.946998  -0.223422   1.624653
    H    4.195230  -2.443877   1.195508
}

set optking { frozen_dihedral = (" 1 2 3 4 ") }

energy, wfn = energy('B3LYP-D3', return_wfn=True)

import os
os.chdir(os.environ['HTMD_PSI4_WORKDIR'])

oeprop(wfn, 'DIPOLE', 'QUADRUPOLE', 'MULLIKEN_CHARGES')

with open('psi4out.xyz', 'w') as f:
    f.write('10 ' )
    f.write('%.12f\n' % energy)
    f.write(MOL.save_string_xyz())
--------------------------------------------------------------------------

    Molecular point group: c1

    Geometry (in Angstrom), charge = 0, multiplicity = 1:

       Center              X                  Y                   Z               Mass
    ------------   -----------------  -----------------  -----------------  -----------------
           O          1.141000000000     0.017000000000     0.083000000000    15.994914619560
           C          2.558000000000     0.086000000000    -0.005000000000    12.000000000000
           C          3.192000000000    -0.789000000000     1.067000000000    12.000000000000
           O          3.809079000000    -1.923043000000     0.469901000000    15.994914619560
           H          0.789000000000     0.590000000000    -0.620000000000     1.007825032070
           H          2.874000000000     1.128000000000     0.115000000000     1.007825032070
           H          2.871000000000    -0.243000000000    -1.001000000000     1.007825032070
           H          2.435004000000    -1.127076000000     1.781562000000     1.007825032070
           H          3.946998000000    -0.223422000000     1.624653000000     1.007825032070
           H          4.195230000000    -2.443877000000     1.195508000000     1.007825032070

  Charge       = 0
  Multiplicity = 1
  Basis Set: CC-PVDZ
    Blend: CC-PVDZ
   => B3LYP Composite Functional <=
  Basis Set: (CC-PVDZ AUX)
    Blend: CC-PVDZ-JKFIT

    Orbital Energies (a.u.)
    -----------------------

    Doubly Occupied:

       1A    -19.127649     2A    -19.127639     3A    -10.225548
       4A    -10.225363     5A     -1.017006     6A     -1.004107
       7A     -0.732899     8A     -0.603177     9A     -0.518680
      10A     -0.507763    11A     -0.432996    12A     -0.412063
      13A     -0.410249    14A     -0.345695    15A     -0.319733
      16A     -0.266805    17A     -0.254897

  @DF-RKS Final Energy:  -230.25364576086184

   => Energetics <=

    Nuclear Repulsion Energy =            130.3222480703366557
    One-Electron Energy =                -572.4531971968851849
    Two-Electron Energy =                 236.4227958128173555
    DFT Exchange-Correlation Energy =     -24.5412401471306545
    Empirical Dispersion Energy =          -0.0042523000000000
    PCM Polarization Energy =               0.0000000000000000
    EFP Energy =                            0.0000000000000000
    Total Energy =                       -230.2536457608618434

  Mulliken Charges: (a.u.)
   Center  Symbol    Alpha    Beta     Spin     Total
       1     O     4.13962  4.13962  0.00000 -0.27924
       2     C     2.93225  2.93225  0.00000  0.13550
       3     C     2.93234  2.93234  0.00000  0.13532
       4     O     4.13981  4.13981  0.00000 -0.27963
       5     H     0.43078  0.43078  0.00000  0.13843
       6     H     0.50326  0.50326  0.00000 -0.00653
       7     H     0.49404  0.49404  0.00000  0.01192
       8     H     0.49397  0.49397  0.00000  0.01206
       9     H     0.50317  0.50317  0.00000 -0.00634
      10     H     0.43075  0.43075  0.00000  0.13851

   Total alpha = 17.00000, Total beta = 17.00000, Total charge =  0.00000

*** Psi4 exiting successfully. Buy a developer a beer!
