                               Psi4 1.1 release

  ==> Input File <==

--------------------------------------------------------------------------
set_num_threads(1)
set_memory(4203741184)

set { reference rks }
set { basis cc-pVDZ }

molecule MOL {
    0 1
    noreorient
    nocom
    symmetry c1
    O    1.014300  -0.002300   0.060500
    O    2.462400  -0.107500  -0.002400
    H    0.821200  -0.823600  -0.430600
    H    2.626279   0.036202   0.949088
}

set optking { frozen_dihedral = (" 3 1 2 4 ") }

energy, wfn = energy('B3LYP-D3', return_wfn=True)

import os
os.chdir(os.environ['HTMD_PSI4_WORKDIR'])

oeprop(wfn, 'DIPOLE', 'QUADRUPOLE', 'MULLIKEN_CHARGES')

with open('psi4out.xyz', 'w') as f:
    f.write('4 ' )
    f.write('%.12f\n' % energy)
    f.write(MOL.save_string_xyz())
--------------------------------------------------------------------------

    Molecular point group: c1

    Geometry (in Angstrom), charge = 0, multiplicity = 1:

       Center              X                  Y                   Z               Mass
    ------------   -----------------  -----------------  -----------------  -----------------
           O          1.014300000000    -0.002300000000     0.060500000000    15.994914619560
           O          2.462400000000    -0.107500000000    -0.002400000000    15.994914619560
           H          0.821200000000    -0.823600000000    -0.430600000000     1.007825032070
           H          2.626279000000     0.036202000000     0.949088000000     1.007825032070

  Charge       = 0
  Multiplicity = 1
  Basis Set: CC-PVDZ
    Blend: CC-PVDZ
   => B3LYP Composite Functional <=
  Basis Set: (CC-PVDZ AUX)
    Blend: CC-PVDZ-JKFIT

    Orbital Energies (a.u.)
    -----------------------

    Doubly Occupied:

       1A    -19.186982     2A    -19.186941     3A     -1.111123
       4A     -0.886374     5A     -0.505518     6A     -0.494582
       7A     -0.407763     8A     -0.326184     9A     -0.258404

  @DF-RKS Final Energy:  -151.55035389765877

   => Energetics <=

    Nuclear Repulsion Energy =             36.7942314401619583
    One-Electron Energy =                -281.5767773263526124
    Two-Electron Energy =                 107.6951306744790458
    DFT Exchange-Correlation Energy =     -14.4626133359471378
    Empirical Dispersion Energy =          -0.0003253500000000
    PCM Polarization Energy =               0.0000000000000000
    EFP Energy =                            0.0000000000000000
    Total Energy =                       -151.5503538976587663

  Mulliken Charges: (a.u.)
   Center  Symbol    Alpha    Beta     Spin     Total
       1     O     4.09119  4.09119  0.00000 -0.18237
       2     O     4.09117  4.09117  0.00000 -0.18233
       3     H     0.40881  0.40881  0.00000  0.18237
       4     H     0.40883  0.40883  0.00000  0.18233

   Total alpha =  9.00000, Total beta =  9.00000, Total charge =  0.00000

*** Psi4 exiting successfully. Buy a developer a beer!
