                               Psi4 1.1 release

  ==> Input File <==

--------------------------------------------------------------------------
set {
	reference rks
	basis cc-pvdz
}

set_num_threads( 8 )
memory 2 gb

molecule MOL {
0 1

O	 1.014300	 -0.002300	 0.060500
O	 2.462400	 -0.107500	 -0.002400
H	 0.850412	 -0.908616	 0.384124
H	 2.655500	 0.713700	 0.488700

	symmetry c1
}
set optking { dynamic_level = 1 }
set optking {
	frozen_dihedral = ("
		3 1 2 4
	")
}

ee,wfn = energy('b3lyp-d3', return_wfn=True)
oeprop( wfn, 'DIPOLE', 'QUADRUPOLE', 'MULLIKEN_CHARGES')
f=open( 'psi4out.xyz', 'w' )
f.write( "4  " )
f.write( str(ee) + "\n" )
f.write( MOL.save_string_xyz() )
f.close()
--------------------------------------------------------------------------

    Molecular point group: c1

    Geometry (in Angstrom), charge = 0, multiplicity = 1:

       Center              X                  Y                   Z               Mass
    ------------   -----------------  -----------------  -----------------  -----------------
           O         -0.724915760032     0.055122594511     0.007303913597    15.994914619560
           O          0.723184239968    -0.050077405489    -0.055596086403    15.994914619560
           H         -0.888803760032    -0.851193405489     0.330927913597     1.007825032070
           H          0.916284239968     0.771122594511     0.435503913597     1.007825032070

  Charge       = 0
  Multiplicity = 1
  Basis Set: CC-PVDZ
    Blend: CC-PVDZ
   => B3LYP Composite Functional <=
  Basis Set: (CC-PVDZ AUX)
    Blend: CC-PVDZ-JKFIT

    Orbital Energies (a.u.)
    -----------------------

    Doubly Occupied:

       1A    -19.186981     2A    -19.186941     3A     -1.111123
       4A     -0.886374     5A     -0.505517     6A     -0.494583
       7A     -0.407762     8A     -0.326187     9A     -0.258402

  @DF-RKS Final Energy:  -151.55035388706494

   => Energetics <=

    Nuclear Repulsion Energy =             36.7942286863196841
    One-Electron Energy =                -281.5767701064124253
    Two-Electron Energy =                 107.6951258691445474
    DFT Exchange-Correlation Energy =     -14.4626129861167723
    Empirical Dispersion Energy =          -0.0003253500000000
    PCM Polarization Energy =               0.0000000000000000
    EFP Energy =                            0.0000000000000000
    Total Energy =                       -151.5503538870649720

  Mulliken Charges: (a.u.)
   Center  Symbol    Alpha    Beta     Spin     Total
       1     O     4.09119  4.09119  0.00000 -0.18237
       2     O     4.09117  4.09117  0.00000 -0.18233
       3     H     0.40881  0.40881  0.00000  0.18238
       4     H     0.40883  0.40883  0.00000  0.18233

   Total alpha =  9.00000, Total beta =  9.00000, Total charge = -0.00000

*** Psi4 exiting successfully. Buy a developer a beer!
