                               Psi4 1.1 release

  ==> Input File <==

--------------------------------------------------------------------------
set_num_threads(1)
set_memory(3145728000)

set { reference rks }
set { basis 6-31G* }

molecule MOL {
    1 1
    noreorient
    nocom
    symmetry c1
    C    0.000000   0.000000  -0.177864
    C    0.036678   1.219374   0.524165
    C    0.031764   1.213119   1.915444
    C   -0.000000  -0.000000   2.610107
    C   -0.031764  -1.213119   1.915444
    C   -0.036677  -1.219374   0.524165
    C    0.000000  -0.000000  -1.644734
    H    0.018170   2.164705  -0.010853
    H    0.042402   2.152895   2.457886
    H   -0.000000  -0.000000   3.695756
    H   -0.042402  -2.152895   2.457886
    H   -0.018170  -2.164705  -0.010853
    N   -1.015073  -0.546038  -2.308460
    N    1.015073   0.546038  -2.308461
    H    1.019311   0.653832  -3.315997
    H    1.855998   0.812421  -1.813317
    H   -1.855998  -0.812421  -1.813316
    H   -1.019311  -0.653832  -3.315997
}

set optking { frozen_dihedral = (" 2 1 7 13 ") }

set optking { dynamic_level = 1
 geom_maxiter = 250
 print_trajectory_xyz_file = True }

energy, wfn = optimize('B3LYP-D3', return_wfn=True)

import os
os.chdir(os.environ['HTMD_PSI4_WORKDIR'])

oeprop(wfn, 'DIPOLE', 'QUADRUPOLE', 'MULLIKEN_CHARGES')

with open('psi4out.xyz', 'w') as f:
    f.write('18 ' )
    f.write('%.12f\n' % energy)
    f.write(MOL.save_string_xyz())
--------------------------------------------------------------------------

    Molecular point group: c1
  Charge       = 1
  Multiplicity = 1
  Basis Set: 6-31G*
    Blend: 6-31G*
   => B3LYP Composite Functional <=
  Basis Set: (6-31G* AUX)
    Blend: CC-PVDZ-JKFIT
  @DF-RKS Final Energy:  -381.46715411890489
    Total Energy =                       -381.4671541189048867
    Molecular point group: c1
  Basis Set: 6-31G*
    Blend: 6-31G*
  Basis Set: (6-31G* AUX)
    Blend: CC-PVDZ-JKFIT
   => B3LYP Composite Functional <=
  Basis Set: 6-31G*
    Blend: 6-31G*
   => B3LYP Composite Functional <=
  Basis Set: (6-31G* AUX)
    Blend: CC-PVDZ-JKFIT
  @DF-RKS Final Energy:  -381.46797604171365
    Total Energy =                       -381.4679760417135981
  Basis Set: 6-31G*
    Blend: 6-31G*
  Basis Set: (6-31G* AUX)
  @DF-RKS Final Energy:  -381.46815140535159
    Total Energy =                       -381.4681514053515343
  @DF-RKS Final Energy:  -381.46816981461836
    Total Energy =                       -381.4681698146184203
   => B3LYP Composite Functional <=
  Basis Set: (6-31G* AUX)
    Blend: CC-PVDZ-JKFIT
  @DF-RKS Final Energy:  -381.46817294884295
    Total Energy =                       -381.4681729488430051
  Basis Set: 6-31G*
    Blend: 6-31G*
  Basis Set: (6-31G* AUX)
    Blend: CC-PVDZ-JKFIT
   => B3LYP Composite Functional <=
  Charge       = 1
  Multiplicity = 1
  Basis Set: 6-31G*
    Blend: 6-31G*
   => B3LYP Composite Functional <=
  Basis Set: (6-31G* AUX)
    Blend: CC-PVDZ-JKFIT

    Orbital Energies (a.u.)
    -----------------------

    Doubly Occupied:

       1A    -14.571938     2A    -14.571826     3A    -10.499437
       4A    -10.370470     5A    -10.352831     6A    -10.352153
       7A    -10.338330     8A    -10.337191     9A    -10.337061
      10A     -1.186786    11A     -1.095728    12A     -1.011642
      13A     -0.924355    14A     -0.898717    15A     -0.844953
      16A     -0.786700    17A     -0.769705    18A     -0.748482
      19A     -0.730006    20A     -0.689652    21A     -0.668223
      22A     -0.621282    23A     -0.620316    24A     -0.581046
      25A     -0.576045    26A     -0.570053    27A     -0.517404
      28A     -0.501055    29A     -0.494901    30A     -0.476021
      31A     -0.408451    32A     -0.402202

  @DF-RKS Final Energy:  -381.46817321204594

   => Energetics <=

    Nuclear Repulsion Energy =            416.7540957338847534
    One-Electron Energy =               -1328.7874198864819846
    Two-Electron Energy =                 574.9820508073838710
    DFT Exchange-Correlation Energy =     -44.4049744968325655
    Empirical Dispersion Energy =          -0.0119253700000000
    PCM Polarization Energy =               0.0000000000000000
    EFP Energy =                            0.0000000000000000
    Total Energy =                       -381.4681732120459401
    Molecular point group: c1
  Basis Set: 6-31G*
    Blend: 6-31G*
  Basis Set: (6-31G* AUX)
    Blend: CC-PVDZ-JKFIT
   => B3LYP Composite Functional <=

  -Total Gradient:
     Atom            X                  Y                   Z
    ------   -----------------  -----------------  -----------------
       1        0.005403307854     0.001658154782    -0.000109808579
       2       -0.004354455217     0.000074795830     0.000094649743
       3       -0.000013501902    -0.000004321902     0.000015906617
       4       -0.000009879684     0.000016094963    -0.000005806852
       5       -0.000000440197    -0.000007142567    -0.000014151816
       6        0.000010268205     0.000005705420     0.000020919107
       7        0.001230444357    -0.005807290190    -0.000090469462
       8       -0.000003439359     0.000005218729    -0.000001091812
       9        0.000005177509    -0.000001114754     0.000001971430
      10        0.000003599739     0.000000515859     0.000002942482
      11       -0.000002492869    -0.000000521283     0.000004336678
      12        0.000000470411    -0.000003516422    -0.000007714920
      13       -0.002247600065     0.004040911879     0.000088273563
      14       -0.000027125570     0.000022043620    -0.000002664801
      15        0.000009394440    -0.000009898378    -0.000000661357
      16        0.000018213046     0.000000333608     0.000010291223
      17       -0.000001430923     0.000007130620    -0.000001004536
      18       -0.000000216578     0.000008748540    -0.000008619454

  **** Optimization is complete! (in 6 steps) ****
    Final optimized geometry and variables:
    Molecular point group: c1

    Geometry (in Angstrom), charge = 1, multiplicity = 1:

    C            0.068098401933    -0.017950893248    -0.177241802134
    C            0.105466680781     1.206659657281     0.510279895155
    C            0.057185240088     1.207607995555     1.902401860881
    C           -0.027068957247     0.000090708802     2.601387895204
    C           -0.077484311681    -1.216246123846     1.913473076940
    C           -0.048877920952    -1.231311240144     0.521338593516
    C            0.030019228668    -0.015437147379    -1.650158836598
    H            0.151174997776     2.143277157122    -0.038169431184
    H            0.076796382701     2.149993812412     2.440243418036
    H           -0.058981795886     0.006896969864     3.686545852667
    H           -0.140314490066    -2.151187786380     2.460887348878
    H           -0.080531456280    -2.173960839915    -0.018113403566
    N           -0.997287210008    -0.576588325587    -2.274636191121
    N            0.987064710078     0.608282440395    -2.325132840613
    H            0.969031086735     0.733931351921    -3.331251763651
    H            1.798209444061     0.954835179049    -1.828505971859
    H           -1.759405515686    -0.959237751444    -1.729345175571
    H           -1.053093515019    -0.669655164458    -3.283001524981

  Mulliken Charges: (a.u.)
   Center  Symbol    Alpha    Beta     Spin     Total
       1     C     2.97701  2.97701  0.00000  0.04599
       2     C     3.07383  3.07383  0.00000 -0.14767
       3     C     3.06215  3.06215  0.00000 -0.12430
       4     C     3.05246  3.05246  0.00000 -0.10493
       5     C     3.06310  3.06310  0.00000 -0.12620
       6     C     3.07839  3.07839  0.00000 -0.15678
       7     C     2.73633  2.73633  0.00000  0.52735
       8     H     0.41333  0.41333  0.00000  0.17335
       9     H     0.40627  0.40627  0.00000  0.18746
      10     H     0.40523  0.40523  0.00000  0.18953
      11     H     0.40630  0.40630  0.00000  0.18741
      12     H     0.41349  0.41349  0.00000  0.17302
      13     N     3.85209  3.85209  0.00000 -0.70418
      14     N     3.85413  3.85413  0.00000 -0.70826
      15     H     0.30546  0.30546  0.00000  0.38909
      16     H     0.29747  0.29747  0.00000  0.40506
      17     H     0.29751  0.29751  0.00000  0.40499
      18     H     0.30546  0.30546  0.00000  0.38909

   Total alpha = 32.00000, Total beta = 32.00000, Total charge =  1.00000

*** Psi4 exiting successfully. Buy a developer a beer!
