                               Psi4 1.1 release

  ==> Input File <==

--------------------------------------------------------------------------
set_num_threads(1)
set_memory(4203741184)

set { reference rks }
set { basis cc-pVDZ }

molecule MOL {
    0 1
    noreorient
    nocom
    symmetry c1
    O    1.141000   0.017000   0.083000
    C    2.558000   0.086000  -0.005000
    C    3.192000  -0.789000   1.067000
    O    4.610000  -0.719000   0.979000
    H    0.917577  -0.910398   0.273937
    H    2.874000   1.128000   0.115000
    H    2.871000  -0.243000  -1.001000
    H    2.876000  -1.830000   0.947000
    H    2.879000  -0.459000   2.064000
    H    4.961000  -1.293000   1.682000
}

set optking { frozen_dihedral = (" 3 2 1 5 ") }

energy, wfn = energy('B3LYP-D3', return_wfn=True)

import os
os.chdir(os.environ['HTMD_PSI4_WORKDIR'])

oeprop(wfn, 'DIPOLE', 'QUADRUPOLE', 'MULLIKEN_CHARGES')

with open('psi4out.xyz', 'w') as f:
    f.write('10 ' )
    f.write('%.12f\n' % energy)
    f.write(MOL.save_string_xyz())
--------------------------------------------------------------------------

    Molecular point group: c1

    Geometry (in Angstrom), charge = 0, multiplicity = 1:

       Center              X                  Y                   Z               Mass
    ------------   -----------------  -----------------  -----------------  -----------------
           O          1.141000000000     0.017000000000     0.083000000000    15.994914619560
           C          2.558000000000     0.086000000000    -0.005000000000    12.000000000000
           C          3.192000000000    -0.789000000000     1.067000000000    12.000000000000
           O          4.610000000000    -0.719000000000     0.979000000000    15.994914619560
           H          0.917577000000    -0.910398000000     0.273937000000     1.007825032070
           H          2.874000000000     1.128000000000     0.115000000000     1.007825032070
           H          2.871000000000    -0.243000000000    -1.001000000000     1.007825032070
           H          2.876000000000    -1.830000000000     0.947000000000     1.007825032070
           H          2.879000000000    -0.459000000000     2.064000000000     1.007825032070
           H          4.961000000000    -1.293000000000     1.682000000000     1.007825032070

  Charge       = 0
  Multiplicity = 1
  Basis Set: CC-PVDZ
    Blend: CC-PVDZ
   => B3LYP Composite Functional <=
  Basis Set: (CC-PVDZ AUX)
    Blend: CC-PVDZ-JKFIT

    Orbital Energies (a.u.)
    -----------------------

    Doubly Occupied:

       1A    -19.137133     2A    -19.134146     3A    -10.233419
       4A    -10.227041     5A     -1.023977     6A     -1.011981
       7A     -0.732638     8A     -0.622297     9A     -0.517944
      10A     -0.493875    11A     -0.464174    12A     -0.426871
      13A     -0.398783    14A     -0.350600    15A     -0.324008
      16A     -0.270870    17A     -0.267433

  @DF-RKS Final Energy:  -230.25776471416182

   => Energetics <=

    Nuclear Repulsion Energy =            130.0212644929672763
    One-Electron Energy =                -571.6511550604191143
    Two-Electron Energy =                 235.9147791645493157
    DFT Exchange-Correlation Energy =     -24.5380089912592680
    Empirical Dispersion Energy =          -0.0046443200000000
    PCM Polarization Energy =               0.0000000000000000
    EFP Energy =                            0.0000000000000000
    Total Energy =                       -230.2577647141618229

  Mulliken Charges: (a.u.)
   Center  Symbol    Alpha    Beta     Spin     Total
       1     O     4.13793  4.13793  0.00000 -0.27587
       2     C     2.92254  2.92254  0.00000  0.15493
       3     C     2.95465  2.95465  0.00000  0.09070
       4     O     4.13820  4.13820  0.00000 -0.27639
       5     H     0.43220  0.43220  0.00000  0.13559
       6     H     0.48661  0.48661  0.00000  0.02677
       7     H     0.49662  0.49662  0.00000  0.00676
       8     H     0.50549  0.50549  0.00000 -0.01099
       9     H     0.49775  0.49775  0.00000  0.00451
      10     H     0.42800  0.42800  0.00000  0.14399

   Total alpha = 17.00000, Total beta = 17.00000, Total charge = -0.00000

*** Psi4 exiting successfully. Buy a developer a beer!
