                               Psi4 1.1 release

  ==> Input File <==

--------------------------------------------------------------------------
set {
	reference rks
	basis 6-31G*
}

set_num_threads( 8 )
memory 2 gb

molecule MOL {
1 1

C	 -0.328723	 0.310975	 -0.263180
C	 -0.206460	 1.631109	 0.209431
C	 -0.524183	 1.920776	 1.532634
C	 -0.953502	 0.902023	 2.388819
C	 -1.071476	 -0.411266	 1.923437
C	 -0.765634	 -0.711500	 0.599791
C	 -0.000000	 -0.000000	 -1.658508
H	 0.085421	 2.432942	 -0.462958
H	 -0.447078	 2.941202	 1.893632
H	 -1.196794	 1.132180	 3.421520
H	 -1.391701	 -1.201697	 2.594413
H	 -0.817721	 -1.740179	 0.254331
N	 -0.712589	 -0.905950	 -2.322235
N	 1.010070	 0.624531	 -2.257494
H	 1.218677	 0.513953	 -3.242898
H	 1.649289	 1.187510	 -1.711841
H	 -1.377189	 -1.485970	 -1.827091
H	 -0.673431	 -1.006470	 -3.329771

	symmetry c1
}
set optking { dynamic_level = 1 }
set optking {
	frozen_dihedral = ("
		1 7 13 17
	")
}

ee,wfn = optimize('b3lyp-d3', return_wfn=True)
oeprop( wfn, 'DIPOLE', 'QUADRUPOLE', 'MULLIKEN_CHARGES')
f=open( 'psi4out.xyz', 'w' )
f.write( "18  " )
f.write( str(ee) + "\n" )
f.write( MOL.save_string_xyz() )
f.close()
--------------------------------------------------------------------------

    Molecular point group: c1
  Charge       = 1
  Multiplicity = 1
  Basis Set: 6-31G*
    Blend: 6-31G*
   => B3LYP Composite Functional <=
  Basis Set: (6-31G* AUX)
    Blend: CC-PVDZ-JKFIT
  @DF-RKS Final Energy:  -381.46616027889576
    Total Energy =                       -381.4661602788958135
    Molecular point group: c1
  Basis Set: 6-31G*
    Blend: 6-31G*
  Basis Set: (6-31G* AUX)
    Blend: CC-PVDZ-JKFIT
   => B3LYP Composite Functional <=
  Basis Set: 6-31G*
    Blend: 6-31G*
   => B3LYP Composite Functional <=
  Basis Set: (6-31G* AUX)
    Blend: CC-PVDZ-JKFIT
  @DF-RKS Final Energy:  -381.46809454214218
    Total Energy =                       -381.4680945421422393
  Basis Set: 6-31G*
    Blend: 6-31G*
  Basis Set: (6-31G* AUX)
  @DF-RKS Final Energy:  -381.46876383175282
    Total Energy =                       -381.4687638317528240
  @DF-RKS Final Energy:  -381.46908674992329
    Total Energy =                       -381.4690867499232922
  @DF-RKS Final Energy:  -381.46909823197240
    Total Energy =                       -381.4690982319723389
   => B3LYP Composite Functional <=
  Basis Set: (6-31G* AUX)
    Blend: CC-PVDZ-JKFIT
  @DF-RKS Final Energy:  -381.46909985296037
    Total Energy =                       -381.4690998529604258
  Basis Set: 6-31G*
    Blend: 6-31G*
  Basis Set: (6-31G* AUX)
    Blend: CC-PVDZ-JKFIT
   => B3LYP Composite Functional <=
  Charge       = 1
  Multiplicity = 1
  Basis Set: 6-31G*
    Blend: 6-31G*
   => B3LYP Composite Functional <=
  Basis Set: (6-31G* AUX)
    Blend: CC-PVDZ-JKFIT

    Orbital Energies (a.u.)
    -----------------------

    Doubly Occupied:

       1A    -14.568989     2A    -14.568324     3A    -10.498259
       4A    -10.374239     5A    -10.357246     6A    -10.356490
       7A    -10.342854     8A    -10.340951     9A    -10.340665
      10A     -1.184784    11A     -1.092944    12A     -1.014816
      13A     -0.926941    14A     -0.902762    15A     -0.846006
      16A     -0.786442    17A     -0.773372    18A     -0.742744
      19A     -0.733428    20A     -0.686381    21A     -0.669246
      22A     -0.626039    23A     -0.620114    24A     -0.587887
      25A     -0.579312    26A     -0.574255    27A     -0.518737
      28A     -0.505985    29A     -0.498728    30A     -0.473121
      31A     -0.411609    32A     -0.406076

  @DF-RKS Final Energy:  -381.46909999523297

   => Energetics <=

    Nuclear Repulsion Energy =            416.8661090374566243
    One-Electron Energy =               -1328.9035814192018279
    Two-Electron Energy =                 574.9854657113593248
    DFT Exchange-Correlation Energy =     -44.4051969748472004
    Empirical Dispersion Energy =          -0.0118963500000000
    PCM Polarization Energy =               0.0000000000000000
    EFP Energy =                            0.0000000000000000
    Total Energy =                       -381.4690999952329662
    Molecular point group: c1
  Basis Set: 6-31G*
    Blend: 6-31G*
  Basis Set: (6-31G* AUX)
    Blend: CC-PVDZ-JKFIT
   => B3LYP Composite Functional <=

  -Total Gradient:
     Atom            X                  Y                   Z
    ------   -----------------  -----------------  -----------------
       1       -0.001857427222     0.002528513572    -0.000944537493
       2       -0.000009373469    -0.000003403553    -0.000011590695
       3        0.000005437128    -0.000005125947     0.000006901359
       4       -0.000005811893     0.000000579216    -0.000007318736
       5        0.000002007126     0.000004764866     0.000005555458
       6       -0.000003738238    -0.000011905570    -0.000010051705
       7        0.004049567407    -0.005191689710     0.001758582377
       8        0.000002529197    -0.000003566991    -0.000002571697
       9       -0.000000144345     0.000000060923    -0.000003601112
      10        0.000001961156    -0.000000163161    -0.000000902513
      11        0.000003953915    -0.000001828209    -0.000000707513
      12        0.000002153462     0.000000395443     0.000002129484
      13       -0.005301642731     0.006155093583    -0.001540724637
      14       -0.000017734667     0.000006568802    -0.000001124625
      15        0.000005171723    -0.000004394687     0.000001983979
      16        0.000004571419    -0.000009259603     0.000003646239
      17        0.003120194443    -0.003467019077     0.000741881267
      18        0.000002271840    -0.000007708404    -0.000012147363

  **** Optimization is complete! (in 7 steps) ****
    Final optimized geometry and variables:
    Molecular point group: c1

    Geometry (in Angstrom), charge = 1, multiplicity = 1:

    C            0.050810965646    -0.049465206138    -0.178313498417
    C            0.172380570052     1.270271404109     0.293868509624
    C           -0.146199768827     1.559601536375     1.617349885112
    C           -0.571349555396     0.540820712078     2.475001057564
    C           -0.685475468480    -0.773001250484     2.010567106653
    C           -0.380838444580    -1.071951895045     0.686330721401
    C            0.372450595783    -0.356810590615    -1.578283937508
    H            0.461116470760     2.073257759233    -0.378368606519
    H           -0.072086912119     2.580779914971     1.976892579045
    H           -0.814615128214     0.771071158074     3.507647845125
    H           -1.002337191330    -1.564355043198     2.682023382660
    H           -0.431037327839    -2.102823759210     0.345321781466
    N           -0.396404324436    -1.195632905366    -2.268965362842
    N            1.379820825806     0.270631116666    -2.177052316108
    H            1.580054522991     0.174878655157    -3.165863100320
    H            2.009080989103     0.846500402781    -1.633472472643
    H           -1.106034512073    -1.733216184700    -1.787758178322
    H           -0.140129095841    -1.523068574815    -3.193855567872

  Mulliken Charges: (a.u.)
   Center  Symbol    Alpha    Beta     Spin     Total
       1     C     2.95165  2.95165  0.00000  0.09671
       2     C     3.08152  3.08152  0.00000 -0.16303
       3     C     3.06234  3.06234  0.00000 -0.12468
       4     C     3.05164  3.05164  0.00000 -0.10328
       5     C     3.06235  3.06235  0.00000 -0.12469
       6     C     3.08450  3.08450  0.00000 -0.16900
       7     C     2.72805  2.72805  0.00000  0.54390
       8     H     0.41421  0.41421  0.00000  0.17158
       9     H     0.40532  0.40532  0.00000  0.18937
      10     H     0.40388  0.40388  0.00000  0.19224
      11     H     0.40543  0.40543  0.00000  0.18915
      12     H     0.41636  0.41636  0.00000  0.16728
      13     N     3.85781  3.85781  0.00000 -0.71562
      14     N     3.86335  3.86335  0.00000 -0.72671
      15     H     0.30527  0.30527  0.00000  0.38945
      16     H     0.29933  0.29933  0.00000  0.40134
      17     H     0.30015  0.30015  0.00000  0.39969
      18     H     0.30685  0.30685  0.00000  0.38631

   Total alpha = 32.00000, Total beta = 32.00000, Total charge =  1.00000

*** Psi4 exiting successfully. Buy a developer a beer!
