                               Psi4 1.1 release

  ==> Input File <==

--------------------------------------------------------------------------
set {
	reference rks
	basis 6-31G*
}

set_num_threads( 8 )
memory 2 gb

molecule MOL {
1 1

C	 -0.000000	 -0.000000	 -0.191639
C	 0.173730	 1.207492	 0.510391
C	 0.168145	 1.201830	 1.901670
C	 -0.000000	 0.000000	 2.596333
C	 -0.168145	 -1.201830	 1.901670
C	 -0.173732	 -1.207491	 0.510391
C	 -0.000000	 -0.000000	 -1.658508
H	 0.261774	 2.148896	 -0.024627
H	 0.284522	 2.134432	 2.444112
H	 -0.000000	 0.000000	 3.681982
H	 -0.284521	 -2.134433	 2.444112
H	 -0.261774	 -2.148896	 -0.024627
N	 -0.712589	 -0.905950	 -2.322235
N	 0.712590	 0.905950	 -2.322235
H	 0.673432	 1.006470	 -3.329771
H	 1.377190	 1.485970	 -1.827091
H	 -1.377189	 -1.485970	 -1.827091
H	 -0.673431	 -1.006470	 -3.329771

	symmetry c1
}
set optking { dynamic_level = 1 }
set optking {
	frozen_dihedral = ("
		2 1 7 13
	")
}

ee,wfn = optimize('b3lyp-d3', return_wfn=True)
oeprop( wfn, 'DIPOLE', 'QUADRUPOLE', 'MULLIKEN_CHARGES')
f=open( 'psi4out.xyz', 'w' )
f.write( "18  " )
f.write( str(ee) + "\n" )
f.write( MOL.save_string_xyz() )
f.close()
--------------------------------------------------------------------------

    Molecular point group: c1
  Charge       = 1
  Multiplicity = 1
  Basis Set: 6-31G*
    Blend: 6-31G*
   => B3LYP Composite Functional <=
  Basis Set: (6-31G* AUX)
    Blend: CC-PVDZ-JKFIT
  @DF-RKS Final Energy:  -381.47019541386595
    Total Energy =                       -381.4701954138660085
    Molecular point group: c1
  Basis Set: 6-31G*
    Blend: 6-31G*
  Basis Set: (6-31G* AUX)
    Blend: CC-PVDZ-JKFIT
   => B3LYP Composite Functional <=
  Basis Set: 6-31G*
    Blend: 6-31G*
   => B3LYP Composite Functional <=
  Basis Set: (6-31G* AUX)
    Blend: CC-PVDZ-JKFIT
  @DF-RKS Final Energy:  -381.47026009308513
    Total Energy =                       -381.4702600930851872
  Basis Set: 6-31G*
    Blend: 6-31G*
  Basis Set: (6-31G* AUX)
  @DF-RKS Final Energy:  -381.47031377073358
    Total Energy =                       -381.4703137707335827
   => B3LYP Composite Functional <=
  Basis Set: (6-31G* AUX)
    Blend: CC-PVDZ-JKFIT
  @DF-RKS Final Energy:  -381.47031588856913
    Total Energy =                       -381.4703158885690755
  Basis Set: 6-31G*
    Blend: 6-31G*
  Basis Set: (6-31G* AUX)
    Blend: CC-PVDZ-JKFIT
   => B3LYP Composite Functional <=
  Charge       = 1
  Multiplicity = 1
  Basis Set: 6-31G*
    Blend: 6-31G*
   => B3LYP Composite Functional <=
  Basis Set: (6-31G* AUX)
    Blend: CC-PVDZ-JKFIT

    Orbital Energies (a.u.)
    -----------------------

    Doubly Occupied:

       1A    -14.567311     2A    -14.567219     3A    -10.497000
       4A    -10.373938     5A    -10.357098     6A    -10.356947
       7A    -10.343961     8A    -10.341076     9A    -10.341010
      10A     -1.183399    11A     -1.091163    12A     -1.014856
      13A     -0.927110    14A     -0.902962    15A     -0.845734
      16A     -0.785612    17A     -0.774164    18A     -0.740061
      19A     -0.733850    20A     -0.688828    21A     -0.669158
      22A     -0.626791    23A     -0.615924    24A     -0.588967
      25A     -0.579726    26A     -0.573548    27A     -0.518381
      28A     -0.506462    29A     -0.498736    30A     -0.472411
      31A     -0.412275    32A     -0.406364

  @DF-RKS Final Energy:  -381.47031674206414

   => Energetics <=

    Nuclear Repulsion Energy =            416.9177191068768025
    One-Electron Energy =               -1329.0240360490745388
    Two-Electron Energy =                 575.0540732238729333
    DFT Exchange-Correlation Energy =     -44.4062107937393336
    Empirical Dispersion Energy =          -0.0118622300000000
    PCM Polarization Energy =               0.0000000000000000
    EFP Energy =                            0.0000000000000000
    Total Energy =                       -381.4703167420641421
    Molecular point group: c1
  Basis Set: 6-31G*
    Blend: 6-31G*
  Basis Set: (6-31G* AUX)
    Blend: CC-PVDZ-JKFIT
   => B3LYP Composite Functional <=

  -Total Gradient:
     Atom            X                  Y                   Z
    ------   -----------------  -----------------  -----------------
       1       -0.001607745903    -0.000088515924    -0.000016889264
       2        0.001503195655    -0.000251062126    -0.000015804124
       3       -0.000016326245     0.000003091546     0.000001670430
       4       -0.000012642587    -0.000003415127     0.000014784563
       5       -0.000005204861    -0.000008287233     0.000011088400
       6        0.000017817232     0.000012900391    -0.000030897150
       7       -0.001105411093     0.001328593379    -0.000025470692
       8       -0.000003494930     0.000007174376    -0.000005281554
       9        0.000003699709     0.000000954957    -0.000005723659
      10        0.000011142512    -0.000005446358    -0.000001759422
      11       -0.000001767305     0.000002300873    -0.000001970009
      12       -0.000010201568    -0.000003183260     0.000007686694
      13        0.001205880795    -0.000942728256     0.000019561551
      14        0.000006063166    -0.000031126868     0.000038279882
      15       -0.000002160142    -0.000003572802    -0.000002926747
      16       -0.000012368397     0.000006011037     0.000000138305
      17        0.000020092951    -0.000007956482    -0.000009185407
      18        0.000011136253    -0.000016969632     0.000000214777

  **** Optimization is complete! (in 5 steps) ****
    Final optimized geometry and variables:
    Molecular point group: c1

    Geometry (in Angstrom), charge = 1, multiplicity = 1:

    C           -0.019671198107     0.004968949849    -0.192028044739
    C            0.154662449209     1.211014975252     0.513512175967
    C            0.165761145454     1.202784237233     1.904312799550
    C            0.015101874318    -0.001613433853     2.598629929347
    C           -0.148850146080    -1.203078201210     1.902622319574
    C           -0.166859451018    -1.205742199697     0.511691665740
    C           -0.010515529804     0.003373755451    -1.658313481987
    H            0.223035664413     2.157000169018    -0.016298416128
    H            0.281555139313     2.135291922017     2.446996018269
    H            0.027434783714    -0.004026769303     3.684204924560
    H           -0.248959501416    -2.138378908821     2.443622673311
    H           -0.242293479888    -2.149809714176    -0.020233177622
    N           -0.721937923732    -0.899078739133    -2.329779994999
    N            0.726743079719     0.890238027828    -2.322174692426
    H            0.698912150693     0.980418438337    -3.330909599614
    H            1.405939793115     1.455115787624    -1.829883750909
    H           -1.417053268739    -1.455307141978    -1.849867810760
    H           -0.671851795560    -0.996873982015    -3.336935600037

  Mulliken Charges: (a.u.)
   Center  Symbol    Alpha    Beta     Spin     Total
       1     C     2.95189  2.95189  0.00000  0.09621
       2     C     3.08423  3.08423  0.00000 -0.16846
       3     C     3.06252  3.06252  0.00000 -0.12504
       4     C     3.05133  3.05133  0.00000 -0.10266
       5     C     3.06215  3.06215  0.00000 -0.12429
       6     C     3.08277  3.08277  0.00000 -0.16555
       7     C     2.71799  2.71799  0.00000  0.56402
       8     H     0.41468  0.41468  0.00000  0.17063
       9     H     0.40530  0.40530  0.00000  0.18941
      10     H     0.40358  0.40358  0.00000  0.19284
      11     H     0.40529  0.40529  0.00000  0.18943
      12     H     0.41486  0.41486  0.00000  0.17029
      13     N     3.86605  3.86605  0.00000 -0.73209
      14     N     3.86553  3.86553  0.00000 -0.73107
      15     H     0.30576  0.30576  0.00000  0.38847
      16     H     0.30011  0.30011  0.00000  0.39978
      17     H     0.30019  0.30019  0.00000  0.39962
      18     H     0.30577  0.30577  0.00000  0.38847

   Total alpha = 32.00000, Total beta = 32.00000, Total charge =  1.00000

*** Psi4 exiting successfully. Buy a developer a beer!
