                              Psi4 1.0.54 Driver

  ==> Input File <==

--------------------------------------------------------------------------
set_num_threads(1)
set_memory(3145728000)

set { reference rks }
set { basis 6-31G* }

molecule MOL {
    1 1
    noreorient
    nocom
    symmetry c1
    C    0.000000   0.000000  -0.177864
    C    0.036678   1.219374   0.524165
    C    0.031764   1.213119   1.915444
    C   -0.000000  -0.000000   2.610107
    C   -0.031764  -1.213119   1.915444
    C   -0.036677  -1.219374   0.524165
    C    0.000000  -0.000000  -1.644734
    H    0.018170   2.164705  -0.010853
    H    0.042402   2.152895   2.457886
    H   -0.000000  -0.000000   3.695756
    H   -0.042402  -2.152895   2.457886
    H   -0.018170  -2.164705  -0.010853
    N   -0.606060  -0.980419  -2.308460
    N    0.606060   0.980419  -2.308461
    H    0.555833   1.075890  -3.315997
    H    1.201131   1.631577  -1.813317
    H   -1.201131  -1.631577  -1.813316
    H   -0.555834  -1.075891  -3.315997
}

set optking { frozen_dihedral = (" 2 1 7 13 ") }

set optking { dynamic_level = 1
 geom_maxiter = 250
 print_trajectory_xyz_file = True }

energy, wfn = optimize('B3LYP-D3', return_wfn=True)

import os
os.chdir(os.environ['HTMD_PSI4_WORKDIR'])

oeprop(wfn, 'DIPOLE', 'QUADRUPOLE', 'MULLIKEN_CHARGES')

with open('psi4out.xyz', 'w') as f:
    f.write('18 ' )
    f.write('%.12f\n' % energy)
    f.write(MOL.save_string_xyz())
--------------------------------------------------------------------------

    Molecular point group: c1
  Charge       = 1
  Multiplicity = 1
  Basis Set: 6-31G*
   => B3LYP-D3 Composite Functional <=
  Basis Set:
  @DF-RKS Final Energy:  -381.47019540750370
    Total Energy =                       -381.4701954075036383
    Molecular point group: c1
  Basis Set: 6-31G*
  Basis Set:
   => B3LYP-D3 Composite Functional <=
  Basis Set: 6-31G*
   => B3LYP-D3 Composite Functional <=
  Basis Set:
  @DF-RKS Final Energy:  -381.47026008751470
    Total Energy =                       -381.4702600875147027
  Basis Set: 6-31G*
  Basis Set:
   => B3LYP-D3 Composite Functional <=
  Basis Set: 6-31G*
   => B3LYP-D3 Composite Functional <=
  Basis Set:
  @DF-RKS Final Energy:  -381.47031376860758
    Total Energy =                       -381.4703137686076957
  Basis Set: 6-31G*
  Basis Set:
   => B3LYP-D3 Composite Functional <=
  Basis Set: 6-31G*
   => B3LYP-D3 Composite Functional <=
  Basis Set:
  @DF-RKS Final Energy:  -381.47031588535447
    Total Energy =                       -381.4703158853545233
  Basis Set: 6-31G*
  Basis Set:
   => B3LYP-D3 Composite Functional <=
  Charge       = 1
  Multiplicity = 1
  Basis Set: 6-31G*
   => B3LYP-D3 Composite Functional <=
  Basis Set:

    Orbital Energies (a.u.)
    -----------------------

    Doubly Occupied:

       1A    -14.567311     2A    -14.567219     3A    -10.497000
       4A    -10.373938     5A    -10.357098     6A    -10.356947
       7A    -10.343961     8A    -10.341076     9A    -10.341011
      10A     -1.183399    11A     -1.091163    12A     -1.014856
      13A     -0.927110    14A     -0.902962    15A     -0.845734
      16A     -0.785612    17A     -0.774164    18A     -0.740061
      19A     -0.733851    20A     -0.688828    21A     -0.669158
      22A     -0.626791    23A     -0.615924    24A     -0.588967
      25A     -0.579726    26A     -0.573548    27A     -0.518381
      28A     -0.506463    29A     -0.498736    30A     -0.472411
      31A     -0.412275    32A     -0.406364

  @DF-RKS Final Energy:  -381.47031673871027

   => Energetics <=

    Nuclear Repulsion Energy =            416.9177191967410181
    One-Electron Energy =               -1329.0240384519038344
    Two-Electron Energy =                 575.0540756852985851
    DFT Exchange-Correlation Energy =     -44.4062109388460229
    Empirical Dispersion Energy =          -0.0118622300000000
    PCM Polarization Energy =               0.0000000000000000
    EFP Energy =                            0.0000000000000000
    Total Energy =                       -381.4703167387102667
    Molecular point group: c1
  Basis Set: 6-31G*
  Basis Set:
   => B3LYP-D3 Composite Functional <=

  -Total Gradient:
     Atom            X                  Y                   Z
    ------   -----------------  -----------------  -----------------
       1       -0.001587566664    -0.000268867235    -0.000016773191
       2        0.001521923494    -0.000080227933    -0.000015763093
       3       -0.000016580350     0.000001205381     0.000001641360
       4       -0.000012183572    -0.000004830912     0.000014696181
       5       -0.000004240523    -0.000008788862     0.000011071270
       6        0.000016256639     0.000014818450    -0.000030851320
       7       -0.001247966205     0.001195667081    -0.000025520212
       8       -0.000004279234     0.000006722277    -0.000005271898
       9        0.000003571037     0.000001337509    -0.000005735477
      10        0.000011685910    -0.000004156981    -0.000001739845
      11       -0.000002015787     0.000002110440    -0.000001976444
      12       -0.000009778425    -0.000004320249     0.000007678233
      13        0.001304359243    -0.000800990849     0.000019560939
      14        0.000009538510    -0.000030238382     0.000038288395
      15       -0.000001741514    -0.000003785908    -0.000002935042
      16       -0.000012967042     0.000004581471     0.000000135530
      17        0.000020845049    -0.000005661378    -0.000009176513
      18        0.000012973213    -0.000015611627     0.000000187722

  **** Optimization is complete! (in 5 steps) ****
    Final optimized geometry and variables:
    Molecular point group: c1

    Geometry (in Angstrom), charge = 1, multiplicity = 1:

    C           -0.023015137924     0.003159282390    -0.177481673207
    C            0.014426559510     1.221164707742     0.528058462008
    C            0.026381170084     1.214235881471     1.918859049901
    C            0.012277624247     0.000533727302     2.613176223096
    C           -0.015364153434    -1.211750832771     1.917168677256
    C           -0.032958831884    -1.216425465375     0.526238031698
    C           -0.013737885585     0.002604668965    -1.643767279788
    H           -0.024139306914     2.168833170479    -0.001752095188
    H            0.036451910468     2.153851414259     2.461542233899
    H            0.024803688947    -0.000475719820     3.698751242803
    H           -0.009535626493    -2.152375761326     2.458169056449
    H           -0.001624661919    -2.162983410654    -0.005686776175
    N           -0.619032936592    -0.974206657558    -2.315233691633
    N            0.618984535980     0.966835322430    -2.307628539418
    H            0.581177818300     1.053308755992    -3.316363464988
    H            1.230265156019     1.604589992202    -1.815337598858
    H           -1.247105154903    -1.605158894165    -1.835321564566
    H           -0.558254767908    -1.065741181563    -3.322389293289

  Mulliken Charges: (a.u.)
   Center  Symbol    Alpha    Beta     Spin     Total
       1     C     2.95189  2.95189  0.00000  0.09621
       2     C     3.08423  3.08423  0.00000 -0.16846
       3     C     3.06252  3.06252  0.00000 -0.12504
       4     C     3.05133  3.05133  0.00000 -0.10266
       5     C     3.06215  3.06215  0.00000 -0.12429
       6     C     3.08278  3.08278  0.00000 -0.16555
       7     C     2.71799  2.71799  0.00000  0.56402
       8     H     0.41468  0.41468  0.00000  0.17063
       9     H     0.40530  0.40530  0.00000  0.18941
      10     H     0.40358  0.40358  0.00000  0.19284
      11     H     0.40529  0.40529  0.00000  0.18943
      12     H     0.41486  0.41486  0.00000  0.17029
      13     N     3.86605  3.86605  0.00000 -0.73209
      14     N     3.86553  3.86553  0.00000 -0.73107
      15     H     0.30576  0.30576  0.00000  0.38847
      16     H     0.30011  0.30011  0.00000  0.39978
      17     H     0.30019  0.30019  0.00000  0.39962
      18     H     0.30577  0.30577  0.00000  0.38847

   Total alpha = 32.00000, Total beta = 32.00000, Total charge =  1.00000

*** Psi4 exiting successfully. Buy a developer a beer!
