                               Psi4 1.1 release

  ==> Input File <==

--------------------------------------------------------------------------
set_num_threads(1)
set_memory(3145728000)

set { reference rks }
set { basis 6-31G* }

molecule MOL {
    1 1
    noreorient
    nocom
    symmetry c1
    C    0.000000   0.000000  -0.177864
    C    0.036678   1.219374   0.524165
    C    0.031764   1.213119   1.915444
    C   -0.000000  -0.000000   2.610107
    C   -0.031764  -1.213119   1.915444
    C   -0.036677  -1.219374   0.524165
    C    0.000000  -0.000000  -1.644734
    H    0.018170   2.164705  -0.010853
    H    0.042402   2.152895   2.457886
    H   -0.000000  -0.000000   3.695756
    H   -0.042402  -2.152895   2.457886
    H   -0.018170  -2.164705  -0.010853
    N    0.426605   1.070765  -2.308461
    N   -0.426604  -1.070765  -2.308460
    H   -0.360563  -1.156065  -3.315997
    H   -0.899562  -1.815364  -1.813316
    H    0.899563   1.815363  -1.813317
    H    0.360563   1.156064  -3.315997
}

set optking { frozen_dihedral = (" 2 1 7 13 ") }

set optking { dynamic_level = 1
 geom_maxiter = 250
 print_trajectory_xyz_file = True }

energy, wfn = optimize('B3LYP-D3', return_wfn=True)

import os
os.chdir(os.environ['HTMD_PSI4_WORKDIR'])

oeprop(wfn, 'DIPOLE', 'QUADRUPOLE', 'MULLIKEN_CHARGES')

with open('psi4out.xyz', 'w') as f:
    f.write('18 ' )
    f.write('%.12f\n' % energy)
    f.write(MOL.save_string_xyz())
--------------------------------------------------------------------------

    Molecular point group: c1
  Charge       = 1
  Multiplicity = 1
  Basis Set: 6-31G*
    Blend: 6-31G*
   => B3LYP Composite Functional <=
  Basis Set: (6-31G* AUX)
    Blend: CC-PVDZ-JKFIT
  @DF-RKS Final Energy:  -381.46858126461711
    Total Energy =                       -381.4685812646171144
    Molecular point group: c1
  Basis Set: 6-31G*
    Blend: 6-31G*
  Basis Set: (6-31G* AUX)
    Blend: CC-PVDZ-JKFIT
   => B3LYP Composite Functional <=
  Basis Set: 6-31G*
    Blend: 6-31G*
   => B3LYP Composite Functional <=
  Basis Set: (6-31G* AUX)
    Blend: CC-PVDZ-JKFIT
  @DF-RKS Final Energy:  -381.46902518693554
    Total Energy =                       -381.4690251869355393
  Basis Set: 6-31G*
    Blend: 6-31G*
  Basis Set: (6-31G* AUX)
  @DF-RKS Final Energy:  -381.46926232287353
    Total Energy =                       -381.4692623228735329
  @DF-RKS Final Energy:  -381.46927664466773
    Total Energy =                       -381.4692766446677865
   => B3LYP Composite Functional <=
  Basis Set: (6-31G* AUX)
    Blend: CC-PVDZ-JKFIT
  @DF-RKS Final Energy:  -381.46928078727450
    Total Energy =                       -381.4692807872744993
  Basis Set: 6-31G*
    Blend: 6-31G*
  Basis Set: (6-31G* AUX)
    Blend: CC-PVDZ-JKFIT
   => B3LYP Composite Functional <=
  Charge       = 1
  Multiplicity = 1
  Basis Set: 6-31G*
    Blend: 6-31G*
   => B3LYP Composite Functional <=
  Basis Set: (6-31G* AUX)
    Blend: CC-PVDZ-JKFIT

    Orbital Energies (a.u.)
    -----------------------

    Doubly Occupied:

       1A    -14.566349     2A    -14.566186     3A    -10.497089
       4A    -10.375216     5A    -10.358654     6A    -10.358283
       7A    -10.345310     8A    -10.341968     9A    -10.341913
      10A     -1.182988    11A     -1.090116    12A     -1.015776
      13A     -0.927879    14A     -0.904131    15A     -0.846428
      16A     -0.785657    17A     -0.775211    18A     -0.737891
      19A     -0.735532    20A     -0.688663    21A     -0.669275
      22A     -0.628756    23A     -0.613732    24A     -0.592666
      25A     -0.580775    26A     -0.574793    27A     -0.518410
      28A     -0.507888    29A     -0.499698    30A     -0.471889
      31A     -0.413023    32A     -0.407235

  @DF-RKS Final Energy:  -381.46928130197722

   => Energetics <=

    Nuclear Repulsion Energy =            416.8513418756072610
    One-Electron Energy =               -1328.8545366640714747
    Two-Electron Energy =                 574.9521808299621171
    DFT Exchange-Correlation Energy =     -44.4065402434751633
    Empirical Dispersion Energy =          -0.0117271000000000
    PCM Polarization Energy =               0.0000000000000000
    EFP Energy =                            0.0000000000000000
    Total Energy =                       -381.4692813019772757
    Molecular point group: c1
  Basis Set: 6-31G*
    Blend: 6-31G*
  Basis Set: (6-31G* AUX)
    Blend: CC-PVDZ-JKFIT
   => B3LYP Composite Functional <=

  -Total Gradient:
     Atom            X                  Y                   Z
    ------   -----------------  -----------------  -----------------
       1       -0.006942037730     0.000885557309    -0.000256601231
       2        0.003575398128    -0.000150171971     0.000126785801
       3        0.000008396674     0.000004761437    -0.000000385556
       4        0.000008558742    -0.000001310274     0.000006052566
       5       -0.000001351709     0.000001231272    -0.000000028261
       6       -0.000006357178     0.000000452180    -0.000003078999
       7        0.006888778174    -0.002202331190     0.000223062194
       8       -0.000002578550     0.000006800241    -0.000001624645
       9       -0.000000403678     0.000002225091    -0.000006213093
      10       -0.000003017229     0.000002157998    -0.000003743064
      11       -0.000001175742    -0.000001599622    -0.000005834290
      12       -0.000007992420    -0.000002276736    -0.000006029505
      13       -0.003509290835     0.001445625897    -0.000108971150
      14       -0.000014865015    -0.000003437473    -0.000001948813
      15        0.000010411788    -0.000000265202     0.000009887724
      16        0.000004088525     0.000000104521     0.000008298903
      17       -0.000001199200     0.000008123718     0.000000755352
      18       -0.000005119839     0.000004914195     0.000003401837

  **** Optimization is complete! (in 6 steps) ****
    Final optimized geometry and variables:
    Molecular point group: c1

    Geometry (in Angstrom), charge = 1, multiplicity = 1:

    C           -0.034686828788     0.000977660548    -0.177007365545
    C           -0.005546011963     1.218217246012     0.531947025643
    C            0.006755471911     1.213354485721     1.922161672466
    C            0.005230487861     0.001018987077     2.618833993077
    C           -0.004840973082    -1.211427354705     1.923180487856
    C           -0.016209515833    -1.216177336286     0.532685582292
    C            0.004893715510    -0.005095802359    -1.642856601523
    H           -0.060795026920     2.168603358472     0.009079186837
    H            0.007829612154     2.154165173980     2.462779182709
    H            0.016211291642     0.001446464429     3.704408317411
    H            0.013979417847    -2.151986371648     2.463908635195
    H            0.040788103906    -2.166087697872     0.009116577210
    N            0.458133315567     1.054032410326    -2.311808790666
    N           -0.462387639937    -1.050314435479    -2.323193343918
    H           -0.386505580117    -1.122966495984    -3.330554467846
    H           -0.993874614861    -1.770833186011    -1.853866116793
    H            0.991632676581     1.768606830359    -1.835627603214
    H            0.419395098523     1.114464063419    -3.322185371191

  Mulliken Charges: (a.u.)
   Center  Symbol    Alpha    Beta     Spin     Total
       1     C     2.94359  2.94359  0.00000  0.11282
       2     C     3.08606  3.08606  0.00000 -0.17212
       3     C     3.06203  3.06203  0.00000 -0.12405
       4     C     3.05129  3.05129  0.00000 -0.10259
       5     C     3.06161  3.06161  0.00000 -0.12323
       6     C     3.08504  3.08504  0.00000 -0.17007
       7     C     2.71246  2.71246  0.00000  0.57508
       8     H     0.41590  0.41590  0.00000  0.16821
       9     H     0.40511  0.40511  0.00000  0.18978
      10     H     0.40315  0.40315  0.00000  0.19371
      11     H     0.40510  0.40510  0.00000  0.18981
      12     H     0.41645  0.41645  0.00000  0.16710
      13     N     3.87018  3.87018  0.00000 -0.74037
      14     N     3.86873  3.86873  0.00000 -0.73746
      15     H     0.30585  0.30585  0.00000  0.38830
      16     H     0.30040  0.30040  0.00000  0.39921
      17     H     0.30113  0.30113  0.00000  0.39774
      18     H     0.30593  0.30593  0.00000  0.38814

   Total alpha = 32.00000, Total beta = 32.00000, Total charge =  1.00000

*** Psi4 exiting successfully. Buy a developer a beer!
