                               Psi4 1.1 release

  ==> Input File <==

--------------------------------------------------------------------------
set_num_threads(1)
set_memory('2004 MB')

set { scf_mem_safety_factor 0.7 }

set { reference rks }
set { basis cc-pVDZ }

molecule MOL {
    0 1
    noreorient
    nocom
    symmetry c1
    O    1.141000   0.017000   0.083000
    C    2.558000   0.086000  -0.005000
    C    3.192000  -0.789000   1.067000
    O    4.610000  -0.719000   0.979000
    H    0.789000   0.590000  -0.620000
    H    2.874000   1.128000   0.115000
    H    2.871000  -0.243000  -1.001000
    H    2.876000  -1.830000   0.947000
    H    2.879000  -0.459000   2.064000
    H    4.950676  -1.575448   1.290967
}

set optking { frozen_dihedral = (" 2 3 4 10 ") }

energy, wfn = energy('B3LYP-D3', return_wfn=True)

import os
os.chdir(os.environ['HTMD_PSI4_WORKDIR'])

oeprop(wfn, 'DIPOLE', 'QUADRUPOLE', 'MULLIKEN_CHARGES')

with open('psi4out.xyz', 'w') as f:
    f.write('10 ' )
    f.write('%.12f\n' % energy)
    f.write(MOL.save_string_xyz())
--------------------------------------------------------------------------

    Molecular point group: c1

    Geometry (in Angstrom), charge = 0, multiplicity = 1:

       Center              X                  Y                   Z               Mass
    ------------   -----------------  -----------------  -----------------  -----------------
           O          1.141000000000     0.017000000000     0.083000000000    15.994914619560
           C          2.558000000000     0.086000000000    -0.005000000000    12.000000000000
           C          3.192000000000    -0.789000000000     1.067000000000    12.000000000000
           O          4.610000000000    -0.719000000000     0.979000000000    15.994914619560
           H          0.789000000000     0.590000000000    -0.620000000000     1.007825032070
           H          2.874000000000     1.128000000000     0.115000000000     1.007825032070
           H          2.871000000000    -0.243000000000    -1.001000000000     1.007825032070
           H          2.876000000000    -1.830000000000     0.947000000000     1.007825032070
           H          2.879000000000    -0.459000000000     2.064000000000     1.007825032070
           H          4.950676000000    -1.575448000000     1.290967000000     1.007825032070

  Charge       = 0
  Multiplicity = 1
  Basis Set: CC-PVDZ
    Blend: CC-PVDZ
   => B3LYP Composite Functional <=
  Basis Set: (CC-PVDZ AUX)
    Blend: CC-PVDZ-JKFIT

    Orbital Energies (a.u.)
    -----------------------

    Doubly Occupied:

       1A    -19.132092     2A    -19.131154     3A    -10.226421
       4A    -10.225243     5A     -1.018901     6A     -1.008578
       7A     -0.731843     8A     -0.604293     9A     -0.526066
      10A     -0.485733    11A     -0.466643    12A     -0.414553
      13A     -0.395250    14A     -0.347087    15A     -0.320215
      16A     -0.265164    17A     -0.263398

  @DF-RKS Final Energy:  -230.25692905867658

   => Energetics <=

    Nuclear Repulsion Energy =            129.4733504185422532
    One-Electron Energy =                -570.7023967174100108
    Two-Electron Energy =                 235.5155243183280618
    DFT Exchange-Correlation Energy =     -24.5389936081368916
    Empirical Dispersion Energy =          -0.0044134700000000
    PCM Polarization Energy =               0.0000000000000000
    EFP Energy =                            0.0000000000000000
    Total Energy =                       -230.2569290586765476

  Mulliken Charges: (a.u.)
   Center  Symbol    Alpha    Beta     Spin     Total
       1     O     4.14066  4.14066  0.00000 -0.28132
       2     C     2.93584  2.93584  0.00000  0.12832
       3     C     2.93701  2.93701  0.00000  0.12598
       4     O     4.14047  4.14047  0.00000 -0.28094
       5     H     0.42753  0.42753  0.00000  0.14493
       6     H     0.49738  0.49738  0.00000  0.00524
       7     H     0.50034  0.50034  0.00000 -0.00069
       8     H     0.49798  0.49798  0.00000  0.00404
       9     H     0.49583  0.49583  0.00000  0.00834
      10     H     0.42695  0.42695  0.00000  0.14610

   Total alpha = 17.00000, Total beta = 17.00000, Total charge = -0.00000

*** Psi4 exiting successfully. Buy a developer a beer!
