                               Psi4 1.1 release

  ==> Input File <==

--------------------------------------------------------------------------
set_num_threads(1)
set_memory(4203741184)

set { reference rks }
set { basis cc-pVDZ }

molecule MOL {
    0 1
    noreorient
    nocom
    symmetry c1
    O    1.141000   0.017000   0.083000
    C    2.558000   0.086000  -0.005000
    C    3.192000  -0.789000   1.067000
    O    4.610000  -0.719000   0.979000
    H    0.789000   0.590000  -0.620000
    H    2.874000   1.128000   0.115000
    H    2.871000  -0.243000  -1.001000
    H    2.876000  -1.830000   0.947000
    H    2.879000  -0.459000   2.064000
    H    4.913363  -0.227371   1.762044
}

set optking { frozen_dihedral = (" 2 3 4 10 ") }

energy, wfn = energy('B3LYP-D3', return_wfn=True)

import os
os.chdir(os.environ['HTMD_PSI4_WORKDIR'])

oeprop(wfn, 'DIPOLE', 'QUADRUPOLE', 'MULLIKEN_CHARGES')

with open('psi4out.xyz', 'w') as f:
    f.write('10 ' )
    f.write('%.12f\n' % energy)
    f.write(MOL.save_string_xyz())
--------------------------------------------------------------------------

    Molecular point group: c1

    Geometry (in Angstrom), charge = 0, multiplicity = 1:

       Center              X                  Y                   Z               Mass
    ------------   -----------------  -----------------  -----------------  -----------------
           O          1.141000000000     0.017000000000     0.083000000000    15.994914619560
           C          2.558000000000     0.086000000000    -0.005000000000    12.000000000000
           C          3.192000000000    -0.789000000000     1.067000000000    12.000000000000
           O          4.610000000000    -0.719000000000     0.979000000000    15.994914619560
           H          0.789000000000     0.590000000000    -0.620000000000     1.007825032070
           H          2.874000000000     1.128000000000     0.115000000000     1.007825032070
           H          2.871000000000    -0.243000000000    -1.001000000000     1.007825032070
           H          2.876000000000    -1.830000000000     0.947000000000     1.007825032070
           H          2.879000000000    -0.459000000000     2.064000000000     1.007825032070
           H          4.913363000000    -0.227371000000     1.762044000000     1.007825032070

  Charge       = 0
  Multiplicity = 1
  Basis Set: CC-PVDZ
    Blend: CC-PVDZ
   => B3LYP Composite Functional <=
  Basis Set: (CC-PVDZ AUX)
    Blend: CC-PVDZ-JKFIT

    Orbital Energies (a.u.)
    -----------------------

    Doubly Occupied:

       1A    -19.133985     2A    -19.130561     3A    -10.226939
       4A    -10.223684     5A     -1.019827     6A     -1.008892
       7A     -0.730829     8A     -0.607963     9A     -0.524863
      10A     -0.492444    11A     -0.454794    12A     -0.423257
      13A     -0.396399    14A     -0.338679    15A     -0.324564
      16A     -0.269011    17A     -0.263493

  @DF-RKS Final Energy:  -230.25722967854585

   => Energetics <=

    Nuclear Repulsion Energy =            129.6107348854843053
    One-Electron Energy =                -570.9625575542540901
    Two-Electron Energy =                 235.6381127429208675
    DFT Exchange-Correlation Energy =     -24.5390383926969342
    Empirical Dispersion Energy =          -0.0044813600000000
    PCM Polarization Energy =               0.0000000000000000
    EFP Energy =                            0.0000000000000000
    Total Energy =                       -230.2572296785458548

  Mulliken Charges: (a.u.)
   Center  Symbol    Alpha    Beta     Spin     Total
       1     O     4.14103  4.14103  0.00000 -0.28206
       2     C     2.93576  2.93576  0.00000  0.12849
       3     C     2.93686  2.93686  0.00000  0.12627
       4     O     4.13988  4.13988  0.00000 -0.27976
       5     H     0.42808  0.42808  0.00000  0.14384
       6     H     0.50534  0.50534  0.00000 -0.01068
       7     H     0.49793  0.49793  0.00000  0.00415
       8     H     0.49009  0.49009  0.00000  0.01981
       9     H     0.49723  0.49723  0.00000  0.00554
      10     H     0.42780  0.42780  0.00000  0.14440

   Total alpha = 17.00000, Total beta = 17.00000, Total charge = -0.00000

*** Psi4 exiting successfully. Buy a developer a beer!
