                               Psi4 1.1 release

  ==> Input File <==

--------------------------------------------------------------------------
set_num_threads( 8 )
memory 2.000000 gb

set { reference rks }
set { basis cc-pVDZ }

molecule MOL {
    0 1
    noreorient
    nocom
    symmetry c1
    O    1.050400   0.042900  -0.048100
    C    2.474100   0.047400  -0.029000
    C    3.002600  -1.068900  -0.932000
    N    4.462700  -1.072400  -1.006800
    H    0.760400   0.728400   0.578000
    H    2.809900  -0.097900   1.003200
    H    2.817400   1.026800  -0.378600
    H    2.581000  -0.963300  -1.938400
    H    2.653800  -2.036400  -0.553400
    H    4.762497  -0.479350  -1.780037
    H    4.776978  -2.014328  -1.239719
}

set optking { frozen_dihedral = (" 2 3 4 10 ") }

energy, wfn = energy('B3LYP-D3', return_wfn=True)

import os
os.chdir(os.environ['HTMD_PSI4_WORKDIR'])

oeprop(wfn, 'DIPOLE', 'QUADRUPOLE', 'MULLIKEN_CHARGES')

with open('psi4out.xyz', 'w') as f:
    f.write('11 ' )
    f.write('%.12f\n' % energy)
    f.write(MOL.save_string_xyz())
--------------------------------------------------------------------------

    Molecular point group: c1

    Geometry (in Angstrom), charge = 0, multiplicity = 1:

       Center              X                  Y                   Z               Mass
    ------------   -----------------  -----------------  -----------------  -----------------
           O          1.050400000000     0.042900000000    -0.048100000000    15.994914619560
           C          2.474100000000     0.047400000000    -0.029000000000    12.000000000000
           C          3.002600000000    -1.068900000000    -0.932000000000    12.000000000000
           N          4.462700000000    -1.072400000000    -1.006800000000    14.003074004780
           H          0.760400000000     0.728400000000     0.578000000000     1.007825032070
           H          2.809900000000    -0.097900000000     1.003200000000     1.007825032070
           H          2.817400000000     1.026800000000    -0.378600000000     1.007825032070
           H          2.581000000000    -0.963300000000    -1.938400000000     1.007825032070
           H          2.653800000000    -2.036400000000    -0.553400000000     1.007825032070
           H          4.762497000000    -0.479350000000    -1.780037000000     1.007825032070
           H          4.776978000000    -2.014328000000    -1.239719000000     1.007825032070

  Charge       = 0
  Multiplicity = 1
  Basis Set: CC-PVDZ
    Blend: CC-PVDZ
   => B3LYP Composite Functional <=
  Basis Set: (CC-PVDZ AUX)
    Blend: CC-PVDZ-JKFIT

    Orbital Energies (a.u.)
    -----------------------

    Doubly Occupied:

       1A    -19.124155     2A    -14.305786     3A    -10.219137
       4A    -10.201742     5A     -1.006578     6A     -0.876903
       7A     -0.710827     8A     -0.593567     9A     -0.503206
      10A     -0.492910    11A     -0.442982    12A     -0.421309
      13A     -0.391876    14A     -0.352535    15A     -0.323313
      16A     -0.257754    17A     -0.233723

  @DF-RKS Final Energy:  -210.39098728023708

   => Energetics <=

    Nuclear Repulsion Energy =            130.2987750563347049
    One-Electron Energy =                -543.5810658002031914
    Two-Electron Energy =                 226.3827649368327002
    DFT Exchange-Correlation Energy =     -23.4866793332013053
    Empirical Dispersion Energy =          -0.0047821400000000
    PCM Polarization Energy =               0.0000000000000000
    EFP Energy =                            0.0000000000000000
    Total Energy =                       -210.3909872802370842

  Mulliken Charges: (a.u.)
   Center  Symbol    Alpha    Beta     Spin     Total
       1     O     4.14069  4.14069  0.00000 -0.28138
       2     C     2.92343  2.92343  0.00000  0.15315
       3     C     2.99291  2.99291  0.00000  0.01419
       4     N     3.59043  3.59043  0.00000 -0.18086
       5     H     0.43003  0.43003  0.00000  0.13993
       6     H     0.50019  0.50019  0.00000 -0.00037
       7     H     0.50474  0.50474  0.00000 -0.00947
       8     H     0.49893  0.49893  0.00000  0.00215
       9     H     0.49125  0.49125  0.00000  0.01750
      10     H     0.46426  0.46426  0.00000  0.07149
      11     H     0.46316  0.46316  0.00000  0.07368

   Total alpha = 17.00000, Total beta = 17.00000, Total charge =  0.00000

*** Psi4 exiting successfully. Buy a developer a beer!
