                               Psi4 1.1 release

  ==> Input File <==

--------------------------------------------------------------------------
set_num_threads(1)
set_memory(3145728000)

set { reference rks }
set { basis 6-31G* }

molecule MOL {
    1 1
    noreorient
    nocom
    symmetry c1
    C    0.000000   0.000000  -0.177864
    C    0.036678   1.219374   0.524165
    C    0.031764   1.213119   1.915444
    C   -0.000000  -0.000000   2.610107
    C   -0.031764  -1.213119   1.915444
    C   -0.036677  -1.219374   0.524165
    C    0.000000  -0.000000  -1.644734
    H    0.018170   2.164705  -0.010853
    H    0.042402   2.152895   2.457886
    H   -0.000000  -0.000000   3.695756
    H   -0.042402  -2.152895   2.457886
    H   -0.018170  -2.164705  -0.010853
    N   -0.712590  -0.905950  -2.308460
    N    0.712590   0.905950  -2.308461
    H    0.673432   1.006469  -3.315997
    H    1.377190   1.485970  -1.813317
    H   -1.472673  -1.387080  -1.845783
    H   -0.575653  -1.099813  -3.293566
}

set optking { frozen_dihedral = (" 1 7 13 17 ") }

set optking { dynamic_level = 1
 geom_maxiter = 250
 print_trajectory_xyz_file = True }

energy, wfn = optimize('B3LYP-D3', return_wfn=True)

import os
os.chdir(os.environ['HTMD_PSI4_WORKDIR'])

oeprop(wfn, 'DIPOLE', 'QUADRUPOLE', 'MULLIKEN_CHARGES')

with open('psi4out.xyz', 'w') as f:
    f.write('18 ' )
    f.write('%.12f\n' % energy)
    f.write(MOL.save_string_xyz())
--------------------------------------------------------------------------

    Molecular point group: c1
  Charge       = 1
  Multiplicity = 1
  Basis Set: 6-31G*
    Blend: 6-31G*
   => B3LYP Composite Functional <=
  Basis Set: (6-31G* AUX)
    Blend: CC-PVDZ-JKFIT
  @DF-RKS Final Energy:  -381.46960837212242
    Total Energy =                       -381.4696083721224227
    Molecular point group: c1
  Basis Set: 6-31G*
    Blend: 6-31G*
  Basis Set: (6-31G* AUX)
    Blend: CC-PVDZ-JKFIT
   => B3LYP Composite Functional <=
  Basis Set: 6-31G*
    Blend: 6-31G*
   => B3LYP Composite Functional <=
  Basis Set: (6-31G* AUX)
    Blend: CC-PVDZ-JKFIT
  @DF-RKS Final Energy:  -381.47005216030294
    Total Energy =                       -381.4700521603029415
  Basis Set: 6-31G*
    Blend: 6-31G*
  Basis Set: (6-31G* AUX)
  @DF-RKS Final Energy:  -381.47019970923640
    Total Energy =                       -381.4701997092363968
  @DF-RKS Final Energy:  -381.47022854908909
    Total Energy =                       -381.4702285490890858
   => B3LYP Composite Functional <=
  Basis Set: (6-31G* AUX)
    Blend: CC-PVDZ-JKFIT
  @DF-RKS Final Energy:  -381.47022978580827
    Total Energy =                       -381.4702297858082147
  Basis Set: 6-31G*
    Blend: 6-31G*
  Basis Set: (6-31G* AUX)
    Blend: CC-PVDZ-JKFIT
   => B3LYP Composite Functional <=
  Charge       = 1
  Multiplicity = 1
  Basis Set: 6-31G*
    Blend: 6-31G*
   => B3LYP Composite Functional <=
  Basis Set: (6-31G* AUX)
    Blend: CC-PVDZ-JKFIT

    Orbital Energies (a.u.)
    -----------------------

    Doubly Occupied:

       1A    -14.568742     2A    -14.567244     3A    -10.496987
       4A    -10.372844     5A    -10.356248     6A    -10.355739
       7A    -10.343268     8A    -10.340413     9A    -10.340206
      10A     -1.183671    11A     -1.091726    12A     -1.014179
      13A     -0.926678    14A     -0.902090    15A     -0.844992
      16A     -0.784995    17A     -0.773274    18A     -0.740738
      19A     -0.732547    20A     -0.690066    21A     -0.668948
      22A     -0.625398    23A     -0.615520    24A     -0.586483
      25A     -0.578997    26A     -0.572251    27A     -0.518160
      28A     -0.505439    29A     -0.497900    30A     -0.473791
      31A     -0.411847    32A     -0.405642

  @DF-RKS Final Energy:  -381.47022993905114

   => Energetics <=

    Nuclear Repulsion Energy =            416.9102379415450628
    One-Electron Energy =               -1329.0393521837627304
    Two-Electron Energy =                 575.0762204218956413
    DFT Exchange-Correlation Energy =     -44.4053997987290998
    Empirical Dispersion Energy =          -0.0119363200000000
    PCM Polarization Energy =               0.0000000000000000
    EFP Energy =                            0.0000000000000000
    Total Energy =                       -381.4702299390510802
    Molecular point group: c1
  Basis Set: 6-31G*
    Blend: 6-31G*
  Basis Set: (6-31G* AUX)
    Blend: CC-PVDZ-JKFIT
   => B3LYP Composite Functional <=

  -Total Gradient:
     Atom            X                  Y                   Z
    ------   -----------------  -----------------  -----------------
       1        0.001177951080    -0.000885529717    -0.000046599150
       2        0.000013051740     0.000004413189     0.000018954486
       3       -0.000004590125     0.000003610073    -0.000004546504
       4        0.000006918079     0.000009607271     0.000005806447
       5       -0.000001342823    -0.000010556264    -0.000018205706
       6        0.000008021340     0.000011212833     0.000025474047
       7       -0.002386440522     0.001880983255    -0.000203642294
       8        0.000002205010    -0.000000270108    -0.000000817561
       9       -0.000000650687    -0.000000010426     0.000001889893
      10       -0.000002045257     0.000003410199    -0.000000669265
      11       -0.000005166338     0.000000803227    -0.000001281592
      12        0.000004051061    -0.000005461572    -0.000002736392
      13        0.002590652806    -0.002468418426     0.000864018738
      14        0.000007348116    -0.000001864903    -0.000015585704
      15       -0.000003346087    -0.000000990921     0.000003657022
      16       -0.000004152905     0.000000633502     0.000000550186
      17       -0.001404396571     0.001460665057    -0.000631223127
      18       -0.000006181162    -0.000006058819    -0.000009072641

  **** Optimization is complete! (in 6 steps) ****
    Final optimized geometry and variables:
    Molecular point group: c1

    Geometry (in Angstrom), charge = 1, multiplicity = 1:

    C           -0.002137465249     0.000725944397    -0.176935509304
    C            0.038177948292     1.220743277503     0.524711609764
    C            0.034745801359     1.215586443112     1.915702105858
    C           -0.001375324173     0.002648896744     2.610870246177
    C           -0.038848900658    -1.210875803699     1.917004095039
    C           -0.044214498577    -1.218414920611     0.525859324420
    C            0.000681876270    -0.001903574936    -1.642394742743
    H            0.022171005416     2.165820589243    -0.010949893423
    H            0.049311192304     2.155460917222     2.457879685034
    H           -0.000552793928     0.003282881555     3.696546000259
    H           -0.053387590112    -2.150121489392     2.460292063868
    H           -0.031053481654    -2.162955320277    -0.010142214502
    N           -0.677288580769    -0.937416285866    -2.305818463892
    N            0.710504205945     0.904809911659    -2.307762648953
    H            0.675878057320     0.997790062918    -3.316246566416
    H            1.375720568464     1.486388763726    -1.814878039025
    H           -1.418570650512    -1.442945687188    -1.837764494018
    H           -0.637464369740    -1.023078606110    -3.315007558140

  Mulliken Charges: (a.u.)
   Center  Symbol    Alpha    Beta     Spin     Total
       1     C     2.95815  2.95815  0.00000  0.08369
       2     C     3.08261  3.08261  0.00000 -0.16522
       3     C     3.06253  3.06253  0.00000 -0.12507
       4     C     3.05133  3.05133  0.00000 -0.10266
       5     C     3.06255  3.06255  0.00000 -0.12510
       6     C     3.08067  3.08067  0.00000 -0.16134
       7     C     2.72372  2.72372  0.00000  0.55256
       8     H     0.41433  0.41433  0.00000  0.17133
       9     H     0.40546  0.40546  0.00000  0.18908
      10     H     0.40381  0.40381  0.00000  0.19237
      11     H     0.40538  0.40538  0.00000  0.18923
      12     H     0.41297  0.41297  0.00000  0.17406
      13     N     3.86297  3.86297  0.00000 -0.72595
      14     N     3.86173  3.86173  0.00000 -0.72346
      15     H     0.30570  0.30570  0.00000  0.38860
      16     H     0.29962  0.29962  0.00000  0.40077
      17     H     0.30008  0.30008  0.00000  0.39984
      18     H     0.30637  0.30637  0.00000  0.38726

   Total alpha = 32.00000, Total beta = 32.00000, Total charge =  1.00000

*** Psi4 exiting successfully. Buy a developer a beer!
