                               Psi4 1.1 release

  ==> Input File <==

--------------------------------------------------------------------------
set {
	reference rks
	basis 6-31G*
}

set_num_threads( 8 )
memory 2 gb

molecule MOL {
1 1

C	 0.165470	 -0.119687	 -0.205925
C	 0.189094	 1.037040	 0.595628
C	 0.341641	 0.916893	 1.973313
C	 0.479968	 -0.347168	 2.554896
C	 0.461571	 -1.497870	 1.760684
C	 0.300231	 -1.390978	 0.382909
C	 -0.000000	 -0.000000	 -1.658508
H	 0.039154	 2.017884	 0.153247
H	 0.342538	 1.806778	 2.594310
H	 0.602435	 -0.435751	 3.629972
H	 0.583056	 -2.476274	 2.214005
H	 0.329467	 -2.284513	 -0.234325
N	 -0.712589	 -0.905950	 -2.322235
N	 0.562846	 1.014262	 -2.309308
H	 0.402819	 1.192970	 -3.293798
H	 1.233439	 1.606232	 -1.836908
H	 -1.377189	 -1.485970	 -1.827091
H	 -0.673431	 -1.006470	 -3.329771

	symmetry c1
}
set optking { dynamic_level = 1 }
set optking {
	frozen_dihedral = ("
		1 7 13 17
	")
}

ee,wfn = optimize('b3lyp-d3', return_wfn=True)
oeprop( wfn, 'DIPOLE', 'QUADRUPOLE', 'MULLIKEN_CHARGES')
f=open( 'psi4out.xyz', 'w' )
f.write( "18  " )
f.write( str(ee) + "\n" )
f.write( MOL.save_string_xyz() )
f.close()
--------------------------------------------------------------------------

    Molecular point group: c1
  Charge       = 1
  Multiplicity = 1
  Basis Set: 6-31G*
    Blend: 6-31G*
   => B3LYP Composite Functional <=
  Basis Set: (6-31G* AUX)
    Blend: CC-PVDZ-JKFIT
  @DF-RKS Final Energy:  -381.46960837248758
    Total Energy =                       -381.4696083724875848
    Molecular point group: c1
  Basis Set: 6-31G*
    Blend: 6-31G*
  Basis Set: (6-31G* AUX)
    Blend: CC-PVDZ-JKFIT
   => B3LYP Composite Functional <=
  Basis Set: 6-31G*
    Blend: 6-31G*
   => B3LYP Composite Functional <=
  Basis Set: (6-31G* AUX)
    Blend: CC-PVDZ-JKFIT
  @DF-RKS Final Energy:  -381.47005215676012
    Total Energy =                       -381.4700521567601186
  Basis Set: 6-31G*
    Blend: 6-31G*
  Basis Set: (6-31G* AUX)
  @DF-RKS Final Energy:  -381.47019970672426
    Total Energy =                       -381.4701997067242587
  @DF-RKS Final Energy:  -381.47022854847802
    Total Energy =                       -381.4702285484779622
   => B3LYP Composite Functional <=
  Basis Set: (6-31G* AUX)
    Blend: CC-PVDZ-JKFIT
  @DF-RKS Final Energy:  -381.47022978405033
    Total Energy =                       -381.4702297840503888
  Basis Set: 6-31G*
    Blend: 6-31G*
  Basis Set: (6-31G* AUX)
    Blend: CC-PVDZ-JKFIT
   => B3LYP Composite Functional <=
  Charge       = 1
  Multiplicity = 1
  Basis Set: 6-31G*
    Blend: 6-31G*
   => B3LYP Composite Functional <=
  Basis Set: (6-31G* AUX)
    Blend: CC-PVDZ-JKFIT

    Orbital Energies (a.u.)
    -----------------------

    Doubly Occupied:

       1A    -14.568742     2A    -14.567244     3A    -10.496987
       4A    -10.372844     5A    -10.356248     6A    -10.355739
       7A    -10.343267     8A    -10.340413     9A    -10.340206
      10A     -1.183671    11A     -1.091727    12A     -1.014179
      13A     -0.926678    14A     -0.902090    15A     -0.844992
      16A     -0.784995    17A     -0.773274    18A     -0.740738
      19A     -0.732547    20A     -0.690066    21A     -0.668948
      22A     -0.625398    23A     -0.615520    24A     -0.586483
      25A     -0.578997    26A     -0.572251    27A     -0.518160
      28A     -0.505439    29A     -0.497900    30A     -0.473791
      31A     -0.411847    32A     -0.405642

  @DF-RKS Final Energy:  -381.47022993751966

   => Energetics <=

    Nuclear Repulsion Energy =            416.9102432250903689
    One-Electron Energy =               -1329.0393625735689511
    Two-Electron Energy =                 575.0762256655621059
    DFT Exchange-Correlation Energy =     -44.4053999346032242
    Empirical Dispersion Energy =          -0.0119363200000000
    PCM Polarization Energy =               0.0000000000000000
    EFP Energy =                            0.0000000000000000
    Total Energy =                       -381.4702299375196617
    Molecular point group: c1
  Basis Set: 6-31G*
    Blend: 6-31G*
  Basis Set: (6-31G* AUX)
    Blend: CC-PVDZ-JKFIT
   => B3LYP Composite Functional <=

  -Total Gradient:
     Atom            X                  Y                   Z
    ------   -----------------  -----------------  -----------------
       1        0.001228536234    -0.000775583900    -0.000250981635
       2        0.000014748668     0.000003961726     0.000017764226
       3       -0.000005334443     0.000003580143    -0.000003659794
       4        0.000006792186     0.000009640900     0.000005890636
       5       -0.000002594441    -0.000009106261    -0.000018829584
       6        0.000009982426     0.000009729870     0.000025384562
       7       -0.002529108618     0.001682030941     0.000221088551
       8        0.000002095675     0.000000041726    -0.000001086805
       9       -0.000000433014    -0.000000168941     0.000001975300
      10       -0.000002352321     0.000003264407    -0.000000082028
      11       -0.000005317244     0.000000406505    -0.000000619017
      12        0.000004113904    -0.000004921159    -0.000003668965
      13        0.002850226866    -0.002302007340     0.000358159526
      14        0.000005669267     0.000000057862    -0.000016387459
      15       -0.000002835529    -0.000001559267     0.000003852534
      16       -0.000004070295     0.000000257094     0.000001054392
      17       -0.001572757335     0.001382838674    -0.000344310256
      18       -0.000006694662    -0.000005802583    -0.000008923267

  **** Optimization is complete! (in 6 steps) ****
    Final optimized geometry and variables:
    Molecular point group: c1

    Geometry (in Angstrom), charge = 1, multiplicity = 1:

    C           -0.026385702589     0.018640635334    -0.189063167654
    C            0.000750693581     1.176347176882     0.611783529440
    C            0.154649683165     1.057438918264     1.989124744426
    C            0.288703004224    -0.206852586738     2.571686022675
    C            0.264770447028    -1.358505326751     1.778830557453
    C            0.103094586786    -1.252938529888     0.401120198674
    C           -0.188705541983     0.135841091846    -1.640787086595
    H           -0.146766472683     2.157203294437     0.168477163696
    H            0.159400139844     1.947777126286     2.609453672585
    H            0.411939845285    -0.294737605369     3.646758962116
    H            0.382444889459    -2.336784069004     2.233450240572
    H            0.126862304326    -2.146061912396    -0.216450097463
    N           -0.864733468156    -0.796554031297    -2.310551651524
    N            0.371155976677     1.150760487437    -2.292849321126
    H            0.216079594859     1.322442736619    -3.279439695798
    H            1.041986984467     1.744514959875    -1.822611781504
    H           -1.508260312220    -1.399647317411    -1.814280303656
    H           -0.932662633093    -0.795898662023    -3.321873458078

  Mulliken Charges: (a.u.)
   Center  Symbol    Alpha    Beta     Spin     Total
       1     C     2.95815  2.95815  0.00000  0.08369
       2     C     3.08261  3.08261  0.00000 -0.16522
       3     C     3.06253  3.06253  0.00000 -0.12507
       4     C     3.05133  3.05133  0.00000 -0.10266
       5     C     3.06255  3.06255  0.00000 -0.12510
       6     C     3.08067  3.08067  0.00000 -0.16134
       7     C     2.72372  2.72372  0.00000  0.55256
       8     H     0.41433  0.41433  0.00000  0.17133
       9     H     0.40546  0.40546  0.00000  0.18908
      10     H     0.40381  0.40381  0.00000  0.19237
      11     H     0.40538  0.40538  0.00000  0.18923
      12     H     0.41297  0.41297  0.00000  0.17406
      13     N     3.86297  3.86297  0.00000 -0.72595
      14     N     3.86173  3.86173  0.00000 -0.72346
      15     H     0.30570  0.30570  0.00000  0.38860
      16     H     0.29962  0.29962  0.00000  0.40077
      17     H     0.30008  0.30008  0.00000  0.39984
      18     H     0.30637  0.30637  0.00000  0.38726

   Total alpha = 32.00000, Total beta = 32.00000, Total charge =  1.00000

*** Psi4 exiting successfully. Buy a developer a beer!
