                               Psi4 1.1 release

  ==> Input File <==

--------------------------------------------------------------------------
set_num_threads(1)
set_memory(4203741184)

set { reference rks }
set { basis cc-pVDZ }

molecule MOL {
    0 1
    noreorient
    nocom
    symmetry c1
    C    0.940800  -0.041500  -0.056200
    C    2.276600  -0.041500  -0.056200
    H    0.380900   0.578300  -0.749400
    H    0.380900  -0.661400   0.637000
    H    2.836500  -0.861010   0.383211
    H    2.836500   0.778104  -0.495577
}

set optking { frozen_dihedral = (" 3 1 2 5 ") }

energy, wfn = energy('B3LYP-D3', return_wfn=True)

import os
os.chdir(os.environ['HTMD_PSI4_WORKDIR'])

oeprop(wfn, 'DIPOLE', 'QUADRUPOLE', 'MULLIKEN_CHARGES')

with open('psi4out.xyz', 'w') as f:
    f.write('6 ' )
    f.write('%.12f\n' % energy)
    f.write(MOL.save_string_xyz())
--------------------------------------------------------------------------

    Molecular point group: c1

    Geometry (in Angstrom), charge = 0, multiplicity = 1:

       Center              X                  Y                   Z               Mass
    ------------   -----------------  -----------------  -----------------  -----------------
           C          0.940800000000    -0.041500000000    -0.056200000000    12.000000000000
           C          2.276600000000    -0.041500000000    -0.056200000000    12.000000000000
           H          0.380900000000     0.578300000000    -0.749400000000     1.007825032070
           H          0.380900000000    -0.661400000000     0.637000000000     1.007825032070
           H          2.836500000000    -0.861010000000     0.383211000000     1.007825032070
           H          2.836500000000     0.778104000000    -0.495577000000     1.007825032070

  Charge       = 0
  Multiplicity = 1
  Basis Set: CC-PVDZ
    Blend: CC-PVDZ
   => B3LYP Composite Functional <=
  Basis Set: (CC-PVDZ AUX)
    Blend: CC-PVDZ-JKFIT

    Orbital Energies (a.u.)
    -----------------------

    Doubly Occupied:

       1A    -10.188304     2A    -10.187524     3A     -0.760568
       4A     -0.578852     5A     -0.467474     6A     -0.416712
       7A     -0.365352     8A     -0.262728

  @DF-RKS Final Energy:   -78.58372128381359

   => Energetics <=

    Nuclear Repulsion Energy =             33.3183840566826888
    One-Electron Energy =                -170.1881464816617040
    Two-Electron Energy =                  68.2372161946347404
    DFT Exchange-Correlation Energy =      -9.9503260034693319
    Empirical Dispersion Energy =          -0.0008490500000000
    PCM Polarization Energy =               0.0000000000000000
    EFP Energy =                            0.0000000000000000
    Total Energy =                        -78.5837212838135883

  Mulliken Charges: (a.u.)
   Center  Symbol    Alpha    Beta     Spin     Total
       1     C     3.02162  3.02162  0.00000 -0.04323
       2     C     3.02161  3.02161  0.00000 -0.04323
       3     H     0.48919  0.48919  0.00000  0.02161
       4     H     0.48919  0.48919  0.00000  0.02162
       5     H     0.48920  0.48920  0.00000  0.02161
       6     H     0.48919  0.48919  0.00000  0.02162

   Total alpha =  8.00000, Total beta =  8.00000, Total charge =  0.00000

*** Psi4 exiting successfully. Buy a developer a beer!
