                               Psi4 1.1 release

  ==> Input File <==

--------------------------------------------------------------------------
set_num_threads(1)
set_memory(4203741184)

set { reference rks }
set { basis cc-pVDZ }

molecule MOL {
    0 1
    noreorient
    nocom
    symmetry c1
    O    1.050400   0.042900  -0.048100
    C    2.474100   0.047400  -0.029000
    C    3.002600  -1.068900  -0.932000
    N    4.462700  -1.072400  -1.006800
    H    0.761538  -0.411724   0.761769
    H    2.809900  -0.097900   1.003200
    H    2.817400   1.026800  -0.378600
    H    2.581000  -0.963300  -1.938400
    H    2.653800  -2.036400  -0.553400
    H    4.779000  -0.221000  -1.470000
    H    4.758600  -1.842500  -1.606500
}

set optking { frozen_dihedral = (" 3 2 1 5 ") }

energy, wfn = energy('B3LYP-D3', return_wfn=True)

import os
os.chdir(os.environ['HTMD_PSI4_WORKDIR'])

oeprop(wfn, 'DIPOLE', 'QUADRUPOLE', 'MULLIKEN_CHARGES')

with open('psi4out.xyz', 'w') as f:
    f.write('11 ' )
    f.write('%.12f\n' % energy)
    f.write(MOL.save_string_xyz())
--------------------------------------------------------------------------

    Molecular point group: c1

    Geometry (in Angstrom), charge = 0, multiplicity = 1:

       Center              X                  Y                   Z               Mass
    ------------   -----------------  -----------------  -----------------  -----------------
           O          1.050400000000     0.042900000000    -0.048100000000    15.994914619560
           C          2.474100000000     0.047400000000    -0.029000000000    12.000000000000
           C          3.002600000000    -1.068900000000    -0.932000000000    12.000000000000
           N          4.462700000000    -1.072400000000    -1.006800000000    14.003074004780
           H          0.761538000000    -0.411724000000     0.761769000000     1.007825032070
           H          2.809900000000    -0.097900000000     1.003200000000     1.007825032070
           H          2.817400000000     1.026800000000    -0.378600000000     1.007825032070
           H          2.581000000000    -0.963300000000    -1.938400000000     1.007825032070
           H          2.653800000000    -2.036400000000    -0.553400000000     1.007825032070
           H          4.779000000000    -0.221000000000    -1.470000000000     1.007825032070
           H          4.758600000000    -1.842500000000    -1.606500000000     1.007825032070

  Charge       = 0
  Multiplicity = 1
  Basis Set: CC-PVDZ
    Blend: CC-PVDZ
   => B3LYP Composite Functional <=
  Basis Set: (CC-PVDZ AUX)
    Blend: CC-PVDZ-JKFIT

    Orbital Energies (a.u.)
    -----------------------

    Doubly Occupied:

       1A    -19.129169     2A    -14.303855     3A    -10.224599
       4A    -10.199533     5A     -1.011529     6A     -0.875994
       7A     -0.710722     8A     -0.602715     9A     -0.509325
      10A     -0.485072    11A     -0.441235    12A     -0.423732
      13A     -0.391185    14A     -0.366046    15A     -0.321127
      16A     -0.265068    17A     -0.230418

  @DF-RKS Final Energy:  -210.39144859309511

   => Energetics <=

    Nuclear Repulsion Energy =            130.6217006933433993
    One-Electron Energy =                -544.1612679516384787
    Two-Electron Energy =                 226.6399177788887584
    DFT Exchange-Correlation Energy =     -23.4867632136888247
    Empirical Dispersion Energy =          -0.0050359000000000
    PCM Polarization Energy =               0.0000000000000000
    EFP Energy =                            0.0000000000000000
    Total Energy =                       -210.3914485930951059

  Mulliken Charges: (a.u.)
   Center  Symbol    Alpha    Beta     Spin     Total
       1     O     4.13932  4.13932  0.00000 -0.27864
       2     C     2.92891  2.92891  0.00000  0.14219
       3     C     2.98530  2.98530  0.00000  0.02939
       4     N     3.59468  3.59468  0.00000 -0.18937
       5     H     0.42973  0.42973  0.00000  0.14054
       6     H     0.49743  0.49743  0.00000  0.00515
       7     H     0.49531  0.49531  0.00000  0.00938
       8     H     0.50117  0.50117  0.00000 -0.00233
       9     H     0.49847  0.49847  0.00000  0.00306
      10     H     0.46539  0.46539  0.00000  0.06922
      11     H     0.46429  0.46429  0.00000  0.07142

   Total alpha = 17.00000, Total beta = 17.00000, Total charge =  0.00000

*** Psi4 exiting successfully. Buy a developer a beer!
