                               Psi4 1.1 release

  ==> Input File <==

--------------------------------------------------------------------------
set_num_threads(1)
set_memory(4203741184)

set { reference rks }
set { basis cc-pVDZ }

molecule MOL {
    0 1
    noreorient
    nocom
    symmetry c1
    O    1.050400   0.042900  -0.048100
    C    2.474100   0.047400  -0.029000
    C    3.002600  -1.068900  -0.932000
    N    2.384831  -1.044933  -2.256872
    H    0.760400   0.728400   0.578000
    H    2.809900  -0.097900   1.003200
    H    2.817400   1.026800  -0.378600
    H    2.827470  -2.042633  -0.459863
    H    4.089167  -0.968388  -1.033612
    H    1.391653  -1.258363  -2.170115
    H    2.783665  -1.797142  -2.818445
}

set optking { frozen_dihedral = (" 1 2 3 4 ") }

energy, wfn = energy('B3LYP-D3', return_wfn=True)

import os
os.chdir(os.environ['HTMD_PSI4_WORKDIR'])

oeprop(wfn, 'DIPOLE', 'QUADRUPOLE', 'MULLIKEN_CHARGES')

with open('psi4out.xyz', 'w') as f:
    f.write('11 ' )
    f.write('%.12f\n' % energy)
    f.write(MOL.save_string_xyz())
--------------------------------------------------------------------------

    Molecular point group: c1

    Geometry (in Angstrom), charge = 0, multiplicity = 1:

       Center              X                  Y                   Z               Mass
    ------------   -----------------  -----------------  -----------------  -----------------
           O          1.050400000000     0.042900000000    -0.048100000000    15.994914619560
           C          2.474100000000     0.047400000000    -0.029000000000    12.000000000000
           C          3.002600000000    -1.068900000000    -0.932000000000    12.000000000000
           N          2.384831000000    -1.044933000000    -2.256872000000    14.003074004780
           H          0.760400000000     0.728400000000     0.578000000000     1.007825032070
           H          2.809900000000    -0.097900000000     1.003200000000     1.007825032070
           H          2.817400000000     1.026800000000    -0.378600000000     1.007825032070
           H          2.827470000000    -2.042633000000    -0.459863000000     1.007825032070
           H          4.089167000000    -0.968388000000    -1.033612000000     1.007825032070
           H          1.391653000000    -1.258363000000    -2.170115000000     1.007825032070
           H          2.783665000000    -1.797142000000    -2.818445000000     1.007825032070

  Charge       = 0
  Multiplicity = 1
  Basis Set: CC-PVDZ
    Blend: CC-PVDZ
   => B3LYP Composite Functional <=
  Basis Set: (CC-PVDZ AUX)
    Blend: CC-PVDZ-JKFIT

    Orbital Energies (a.u.)
    -----------------------

    Doubly Occupied:

       1A    -19.128340     2A    -14.295074     3A    -10.223983
       4A    -10.202307     5A     -1.011071     6A     -0.867710
       7A     -0.714074     8A     -0.592604     9A     -0.514752
      10A     -0.470491    11A     -0.457929    12A     -0.404657
      13A     -0.393910    14A     -0.360113    15A     -0.327238
      16A     -0.262412    17A     -0.222824

  @DF-RKS Final Energy:  -210.39286681479842

   => Energetics <=

    Nuclear Repulsion Energy =            133.2740835571280797
    One-Electron Energy =                -549.5529938190422854
    Two-Electron Energy =                 229.3768258606795882
    DFT Exchange-Correlation Energy =     -23.4856391435637946
    Empirical Dispersion Energy =          -0.0051432700000000
    PCM Polarization Energy =               0.0000000000000000
    EFP Energy =                            0.0000000000000000
    Total Energy =                       -210.3928668147984240

  Mulliken Charges: (a.u.)
   Center  Symbol    Alpha    Beta     Spin     Total
       1     O     4.14059  4.14059  0.00000 -0.28119
       2     C     2.92625  2.92625  0.00000  0.14751
       3     C     2.98268  2.98268  0.00000  0.03463
       4     N     3.59079  3.59079  0.00000 -0.18159
       5     H     0.42912  0.42912  0.00000  0.14177
       6     H     0.50419  0.50419  0.00000 -0.00838
       7     H     0.49972  0.49972  0.00000  0.00055
       8     H     0.50323  0.50323  0.00000 -0.00646
       9     H     0.49530  0.49530  0.00000  0.00940
      10     H     0.46130  0.46130  0.00000  0.07741
      11     H     0.46682  0.46682  0.00000  0.06636

   Total alpha = 17.00000, Total beta = 17.00000, Total charge = -0.00000

*** Psi4 exiting successfully. Buy a developer a beer!
