                               Psi4 1.1 release

  ==> Input File <==

--------------------------------------------------------------------------
set_num_threads(1)
set_memory(3145728000)

set { reference rks }
set { basis 6-31G* }

molecule MOL {
    1 1
    noreorient
    nocom
    symmetry c1
    C    0.000000   0.000000  -0.177864
    C    0.036678   1.219374   0.524165
    C    0.031764   1.213119   1.915444
    C   -0.000000  -0.000000   2.610107
    C   -0.031764  -1.213119   1.915444
    C   -0.036677  -1.219374   0.524165
    C    0.000000  -0.000000  -1.644734
    H    0.018170   2.164705  -0.010853
    H    0.042402   2.152895   2.457886
    H   -0.000000  -0.000000   3.695756
    H   -0.042402  -2.152895   2.457886
    H   -0.018170  -2.164705  -0.010853
    N   -0.712590  -0.905950  -2.308460
    N    0.712590   0.905950  -2.308461
    H    0.673432   1.006469  -3.315997
    H    1.377190   1.485970  -1.813317
    H   -1.092986  -0.680248  -3.218208
    H   -0.845023  -1.853713  -1.975333
}

set optking { frozen_dihedral = (" 1 7 13 17 ") }

set optking { dynamic_level = 1
 geom_maxiter = 250
 print_trajectory_xyz_file = True }

energy, wfn = optimize('B3LYP-D3', return_wfn=True)

import os
os.chdir(os.environ['HTMD_PSI4_WORKDIR'])

oeprop(wfn, 'DIPOLE', 'QUADRUPOLE', 'MULLIKEN_CHARGES')

with open('psi4out.xyz', 'w') as f:
    f.write('18 ' )
    f.write('%.12f\n' % energy)
    f.write(MOL.save_string_xyz())
--------------------------------------------------------------------------

    Molecular point group: c1
  Charge       = 1
  Multiplicity = 1
  Basis Set: 6-31G*
    Blend: 6-31G*
   => B3LYP Composite Functional <=
  Basis Set: (6-31G* AUX)
    Blend: CC-PVDZ-JKFIT
  @DF-RKS Final Energy:  -381.45445533392422
    Total Energy =                       -381.4544553339242157
    Molecular point group: c1
  Basis Set: 6-31G*
    Blend: 6-31G*
  Basis Set: (6-31G* AUX)
    Blend: CC-PVDZ-JKFIT
   => B3LYP Composite Functional <=
  Basis Set: 6-31G*
    Blend: 6-31G*
   => B3LYP Composite Functional <=
  Basis Set: (6-31G* AUX)
    Blend: CC-PVDZ-JKFIT
  @DF-RKS Final Energy:  -381.46077308463271
    Total Energy =                       -381.4607730846327627
  Basis Set: 6-31G*
    Blend: 6-31G*
  Basis Set: (6-31G* AUX)
  @DF-RKS Final Energy:  -381.46273356836139
    Total Energy =                       -381.4627335683613865
  @DF-RKS Final Energy:  -381.46520748683230
    Total Energy =                       -381.4652074868322984
  @DF-RKS Final Energy:  -381.46555897135676
    Total Energy =                       -381.4655589713566997
  @DF-RKS Final Energy:  -381.46559585960392
    Total Energy =                       -381.4655958596039795
   => B3LYP Composite Functional <=
  Basis Set: (6-31G* AUX)
    Blend: CC-PVDZ-JKFIT
  @DF-RKS Final Energy:  -381.46560018473099
    Total Energy =                       -381.4656001847309312
  Basis Set: 6-31G*
    Blend: 6-31G*
  Basis Set: (6-31G* AUX)
    Blend: CC-PVDZ-JKFIT
   => B3LYP Composite Functional <=
  Charge       = 1
  Multiplicity = 1
  Basis Set: 6-31G*
    Blend: 6-31G*
   => B3LYP Composite Functional <=
  Basis Set: (6-31G* AUX)
    Blend: CC-PVDZ-JKFIT

    Orbital Energies (a.u.)
    -----------------------

    Doubly Occupied:

       1A    -14.572329     2A    -14.564769     3A    -10.500204
       4A    -10.376030     5A    -10.358468     6A    -10.357325
       7A    -10.343828     8A    -10.341899     9A    -10.341686
      10A     -1.185692    11A     -1.093858    12A     -1.015943
      13A     -0.927917    14A     -0.903803    15A     -0.845663
      16A     -0.785866    17A     -0.775218    18A     -0.739799
      19A     -0.733230    20A     -0.682320    21A     -0.669557
      22A     -0.629814    23A     -0.615909    24A     -0.593572
      25A     -0.579027    26A     -0.575446    27A     -0.518470
      28A     -0.507987    29A     -0.499764    30A     -0.475474
      31A     -0.411858    32A     -0.407094

  @DF-RKS Final Energy:  -381.46560061728314

   => Energetics <=

    Nuclear Repulsion Energy =            416.8239771107782303
    One-Electron Energy =               -1328.7736178389127417
    Two-Electron Energy =                 574.8990140166748688
    DFT Exchange-Correlation Energy =     -44.4031014258235857
    Empirical Dispersion Energy =          -0.0118724800000000
    PCM Polarization Energy =               0.0000000000000000
    EFP Energy =                            0.0000000000000000
    Total Energy =                       -381.4656006172832008
    Molecular point group: c1
  Basis Set: 6-31G*
    Blend: 6-31G*
  Basis Set: (6-31G* AUX)
    Blend: CC-PVDZ-JKFIT
   => B3LYP Composite Functional <=

  -Total Gradient:
     Atom            X                  Y                   Z
    ------   -----------------  -----------------  -----------------
       1       -0.005259751650     0.003899975602    -0.000036474718
       2        0.000003892544    -0.000015506763    -0.000013061419
       3       -0.000001094369     0.000007449958     0.000006511740
       4       -0.000003556231    -0.000010697670    -0.000005829910
       5       -0.000001123809     0.000016563399     0.000015560203
       6        0.000010402968    -0.000026263109    -0.000013431684
       7        0.005089380173    -0.004843562553     0.001604402962
       8       -0.000003910230    -0.000001887001    -0.000003610696
       9        0.000000801823    -0.000001527651     0.000000620779
      10        0.000001800551     0.000002731771    -0.000000201850
      11       -0.000003823551    -0.000001392039    -0.000001619888
      12       -0.000003773015     0.000005562801    -0.000001780121
      13        0.008240256139    -0.001960697252    -0.005579765904
      14       -0.000013419092    -0.000053578826     0.000002961541
      15       -0.000019472315     0.000017985487     0.000000616041
      16        0.000004324265    -0.000005286865     0.000003416306
      17       -0.008038801854     0.002947674980     0.003997511198
      18       -0.000006782445     0.000017352106     0.000005259334

  **** Optimization is complete! (in 8 steps) ****
    Final optimized geometry and variables:
    Molecular point group: c1

    Geometry (in Angstrom), charge = 1, multiplicity = 1:

    C            0.049495863133    -0.025479975958    -0.186922465931
    C            0.046099626371     1.197213469692     0.509843965442
    C            0.006156961067     1.196116688844     1.901049146855
    C           -0.012022288820    -0.013115744138     2.601791580927
    C            0.002234099407    -1.229580167130     1.912285894882
    C            0.027916016336    -1.241839201061     0.521566238153
    C            0.062877824543    -0.029061243665    -1.655120296047
    H            0.015885356862     2.141815931156    -0.025680564342
    H           -0.019438033198     2.138957312838     2.437673645295
    H           -0.037708941816    -0.007784398007     3.687067697219
    H            0.003068618161    -2.167245049709     2.458441027523
    H            0.082376639750    -2.190573260644    -0.005701527294
    N           -0.618274556652    -0.962433674227    -2.334717034537
    N            0.702955545234     0.927449351458    -2.315621884935
    H            0.705375247790     0.984286632797    -3.327704145081
    H            1.317967082527     1.560547168138    -1.820956441851
    H           -0.999362730185    -0.756028093726    -3.252515632490
    H           -1.222988330508    -1.564767746658    -1.788006203790

  Mulliken Charges: (a.u.)
   Center  Symbol    Alpha    Beta     Spin     Total
       1     C     2.95330  2.95330  0.00000  0.09340
       2     C     3.08316  3.08316  0.00000 -0.16633
       3     C     3.06238  3.06238  0.00000 -0.12477
       4     C     3.05159  3.05159  0.00000 -0.10317
       5     C     3.06225  3.06225  0.00000 -0.12451
       6     C     3.08552  3.08552  0.00000 -0.17103
       7     C     2.73395  2.73395  0.00000  0.53210
       8     H     0.41518  0.41518  0.00000  0.16964
       9     H     0.40521  0.40521  0.00000  0.18958
      10     H     0.40363  0.40363  0.00000  0.19273
      11     H     0.40493  0.40493  0.00000  0.19014
      12     H     0.41159  0.41159  0.00000  0.17682
      13     N     3.85680  3.85680  0.00000 -0.71361
      14     N     3.85841  3.85841  0.00000 -0.71682
      15     H     0.30377  0.30377  0.00000  0.39247
      16     H     0.29874  0.29874  0.00000  0.40252
      17     H     0.30600  0.30600  0.00000  0.38800
      18     H     0.30359  0.30359  0.00000  0.39282

   Total alpha = 32.00000, Total beta = 32.00000, Total charge =  1.00000

*** Psi4 exiting successfully. Buy a developer a beer!
