                               Psi4 1.1 release

  ==> Input File <==

--------------------------------------------------------------------------
set {
	reference rks
	basis 6-31G*
}

set_num_threads( 8 )
memory 2 gb

molecule MOL {
1 1

C	 1.455569	 0.056346	 -1.831273
C	 2.281290	 0.365664	 -0.734198
C	 3.661478	 0.413034	 -0.903183
C	 4.222065	 0.163438	 -2.159635
C	 3.404028	 -0.139525	 -3.252454
C	 2.023093	 -0.199040	 -3.093715
C	 -0.000000	 -0.000000	 -1.658508
H	 1.853350	 0.518071	 0.252654
H	 4.300317	 0.634227	 -0.054365
H	 5.299351	 0.205141	 -2.287500
H	 3.841716	 -0.319044	 -4.229048
H	 1.389239	 -0.392549	 -3.954541
N	 -0.712589	 -0.905950	 -2.322235
N	 -0.604639	 0.854960	 -0.838437
H	 -1.591190	 0.798255	 -0.614231
H	 -0.091505	 1.641596	 -0.462695
H	 -1.377189	 -1.485970	 -1.827091
H	 -0.673431	 -1.006470	 -3.329771

	symmetry c1
}
set optking { dynamic_level = 1 }
set optking {
	frozen_dihedral = ("
		1 7 13 17
	")
}

ee,wfn = optimize('b3lyp-d3', return_wfn=True)
oeprop( wfn, 'DIPOLE', 'QUADRUPOLE', 'MULLIKEN_CHARGES')
f=open( 'psi4out.xyz', 'w' )
f.write( "18  " )
f.write( str(ee) + "\n" )
f.write( MOL.save_string_xyz() )
f.close()
--------------------------------------------------------------------------

    Molecular point group: c1
  Charge       = 1
  Multiplicity = 1
  Basis Set: 6-31G*
    Blend: 6-31G*
   => B3LYP Composite Functional <=
  Basis Set: (6-31G* AUX)
    Blend: CC-PVDZ-JKFIT
  @DF-RKS Final Energy:  -381.43962699852364
    Total Energy =                       -381.4396269985236358
    Molecular point group: c1
  Basis Set: 6-31G*
    Blend: 6-31G*
  Basis Set: (6-31G* AUX)
    Blend: CC-PVDZ-JKFIT
   => B3LYP Composite Functional <=
  Basis Set: 6-31G*
    Blend: 6-31G*
   => B3LYP Composite Functional <=
  Basis Set: (6-31G* AUX)
    Blend: CC-PVDZ-JKFIT
  @DF-RKS Final Energy:  -381.44853870333947
    Total Energy =                       -381.4485387033394090
  Basis Set: 6-31G*
    Blend: 6-31G*
  Basis Set: (6-31G* AUX)
  @DF-RKS Final Energy:  -381.45296561798420
    Total Energy =                       -381.4529656179842050
  @DF-RKS Final Energy:  -381.44853870345224
    Total Energy =                       -381.4485387034522432
  @DF-RKS Final Energy:  -381.45183182257256
    Total Energy =                       -381.4518318225725579
  @DF-RKS Final Energy:  -381.45433785193961
    Total Energy =                       -381.4543378519396128
  @DF-RKS Final Energy:  -381.45636792120848
    Total Energy =                       -381.4563679212084821
  @DF-RKS Final Energy:  -381.45785893102374
    Total Energy =                       -381.4578589310236794
  @DF-RKS Final Energy:  -381.45869713274749
    Total Energy =                       -381.4586971327475453
  @DF-RKS Final Energy:  -381.45887974930542
    Total Energy =                       -381.4588797493054244
  @DF-RKS Final Energy:  -381.45890699159213
    Total Energy =                       -381.4589069915921868
  @DF-RKS Final Energy:  -381.45890876423590
    Total Energy =                       -381.4589087642359573
  @DF-RKS Final Energy:  -381.45861279969489
    Total Energy =                       -381.4586127996948903
   => B3LYP Composite Functional <=
  Basis Set: (6-31G* AUX)
    Blend: CC-PVDZ-JKFIT
  @DF-RKS Final Energy:  -381.45882343914394
    Total Energy =                       -381.4588234391439414
  Basis Set: 6-31G*
    Blend: 6-31G*
  Basis Set: (6-31G* AUX)
    Blend: CC-PVDZ-JKFIT
   => B3LYP Composite Functional <=
  Charge       = 1
  Multiplicity = 1
  Basis Set: 6-31G*
    Blend: 6-31G*
   => B3LYP Composite Functional <=
  Basis Set: (6-31G* AUX)
    Blend: CC-PVDZ-JKFIT

    Orbital Energies (a.u.)
    -----------------------

    Doubly Occupied:

       1A    -14.575241     2A    -14.557669     3A    -10.501648
       4A    -10.379051     5A    -10.361589     6A    -10.360397
       7A    -10.346534     8A    -10.344376     9A    -10.344095
      10A     -1.185366    11A     -1.092188    12A     -1.018352
      13A     -0.929512    14A     -0.906516    15A     -0.845690
      16A     -0.786165    17A     -0.775744    18A     -0.739503
      19A     -0.731110    20A     -0.677200    21A     -0.671578
      22A     -0.634276    23A     -0.612993    24A     -0.596913
      25A     -0.580483    26A     -0.577853    27A     -0.519582
      28A     -0.511430    29A     -0.502300    30A     -0.474507
      31A     -0.413647    32A     -0.409538

  @DF-RKS Final Energy:  -381.45890876540483

   => Energetics <=

    Nuclear Repulsion Energy =            416.5847386223992999
    One-Electron Energy =               -1328.2174054452327709
    Two-Electron Energy =                 574.5856491528235210
    DFT Exchange-Correlation Energy =     -44.4000825053949058
    Empirical Dispersion Energy =          -0.0118085900000000
    PCM Polarization Energy =               0.0000000000000000
    EFP Energy =                            0.0000000000000000
    Total Energy =                       -381.4589087654048285
    Molecular point group: c1
  Basis Set: 6-31G*
    Blend: 6-31G*
  Basis Set: (6-31G* AUX)
    Blend: CC-PVDZ-JKFIT
   => B3LYP Composite Functional <=

  -Total Gradient:
     Atom            X                  Y                   Z
    ------   -----------------  -----------------  -----------------
       1        0.000945544458    -0.006360958782     0.006839888456
       2       -0.000015577091     0.000019680309    -0.000056155880
       3       -0.000019819499    -0.000001089036     0.000013683610
       4       -0.000010238312    -0.000009464919    -0.000030411602
       5        0.000029362114     0.000002275632     0.000000009048
       6        0.000006939463     0.000005692130    -0.000004628670
       7        0.001750826424     0.006536569747    -0.009931105459
       8        0.000021558544     0.000001082889     0.000009090702
       9       -0.000006664657    -0.000001043030     0.000002093789
      10       -0.000004463112     0.000001388824    -0.000001252289
      11       -0.000000449359    -0.000001476116    -0.000000788041
      12        0.000031547434     0.000015532758     0.000003913506
      13       -0.011604797415     0.009080071421     0.001514407057
      14       -0.000018497062    -0.000007895434    -0.000131111929
      15        0.000007324362    -0.000014335092     0.000015122968
      16       -0.000024402257    -0.000037892006    -0.000039533019
      17        0.009014668931    -0.009345146316     0.001642216153
      18       -0.000114491047     0.000119649439     0.000146250430

  **** Optimization is complete! (in 1 steps) ****
    Final optimized geometry and variables:
    Molecular point group: c1

    Geometry (in Angstrom), charge = 1, multiplicity = 1:

    C           -0.191340317636     0.021333144840     0.006087393157
    C            0.635300311338     0.304259219417     1.110521159672
    C            2.018002194385     0.302682189026     0.955447224291
    C            2.584427799025     0.046559209241    -0.296462110098
    C            1.767232161271    -0.219968147175    -1.399459695855
    C            0.384686800680    -0.240133155447    -1.252574985710
    C           -1.648730997896    -0.012543997146     0.171657671435
    H            0.212528706486     0.461022768942     2.098714015085
    H            2.653557598798     0.493833721609     1.813970834356
    H            3.663741045569     0.053237884360    -0.412583318647
    H            2.207251389752    -0.404239734394    -2.374046404887
    H           -0.239769919802    -0.406379342435    -2.126627548562
    N           -2.417176422645    -0.877079247164    -0.529775444414
    N           -2.234755879158     0.742386314179     1.088539730071
    H           -3.238154774594     0.724463377239     1.234172927242
    H           -1.711538156732     1.453184821048     1.583277821373
    H           -3.093008146372    -1.440831453851    -0.020977917825
    H           -1.896904848628    -1.470244640798    -1.167832584978

  Mulliken Charges: (a.u.)
   Center  Symbol    Alpha    Beta     Spin     Total
       1     C     2.94468  2.94468  0.00000  0.11064
       2     C     3.08388  3.08388  0.00000 -0.16776
       3     C     3.06208  3.06208  0.00000 -0.12417
       4     C     3.05130  3.05130  0.00000 -0.10261
       5     C     3.06215  3.06215  0.00000 -0.12429
       6     C     3.08749  3.08749  0.00000 -0.17498
       7     C     2.74681  2.74681  0.00000  0.50638
       8     H     0.41595  0.41595  0.00000  0.16811
       9     H     0.40462  0.40462  0.00000  0.19076
      10     H     0.40289  0.40289  0.00000  0.19421
      11     H     0.40424  0.40424  0.00000  0.19152
      12     H     0.41128  0.41128  0.00000  0.17744
      13     N     3.85737  3.85737  0.00000 -0.71473
      14     N     3.85312  3.85312  0.00000 -0.70624
      15     H     0.30114  0.30114  0.00000  0.39773
      16     H     0.29861  0.29861  0.00000  0.40277
      17     H     0.30477  0.30477  0.00000  0.39045
      18     H     0.30761  0.30761  0.00000  0.38477

   Total alpha = 32.00000, Total beta = 32.00000, Total charge =  1.00000

*** Psi4 exiting successfully. Buy a developer a beer!
