                              Psi4 1.0.54 Driver

  ==> Input File <==

--------------------------------------------------------------------------
set_num_threads(1)
set_memory(3145728000)

set { reference rks }
set { basis 6-31G* }

molecule MOL {
    1 1
    noreorient
    nocom
    symmetry c1
    C    0.000000   0.000000  -0.177864
    C    0.036678   1.219374   0.524165
    C    0.031764   1.213119   1.915444
    C   -0.000000  -0.000000   2.610107
    C   -0.031764  -1.213119   1.915444
    C   -0.036677  -1.219374   0.524165
    C    0.000000  -0.000000  -1.644734
    H    0.018170   2.164705  -0.010853
    H    0.042402   2.152895   2.457886
    H   -0.000000  -0.000000   3.695756
    H   -0.042402  -2.152895   2.457886
    H   -0.018170  -2.164705  -0.010853
    N    1.152098  -0.034654  -2.308461
    N   -1.152097   0.034653  -2.308460
    H   -1.209665  -0.056580  -3.315997
    H   -2.013552   0.224421  -1.813316
    H    2.013552  -0.224422  -1.813317
    H    1.209665   0.056579  -3.315997
}

set optking { frozen_dihedral = (" 2 1 7 13 ") }

set optking { dynamic_level = 1
 geom_maxiter = 250
 print_trajectory_xyz_file = True }

energy, wfn = optimize('B3LYP-D3', return_wfn=True)

import os
os.chdir(os.environ['HTMD_PSI4_WORKDIR'])

oeprop(wfn, 'DIPOLE', 'QUADRUPOLE', 'MULLIKEN_CHARGES')

with open('psi4out.xyz', 'w') as f:
    f.write('18 ' )
    f.write('%.12f\n' % energy)
    f.write(MOL.save_string_xyz())
--------------------------------------------------------------------------

    Molecular point group: c1
  Charge       = 1
  Multiplicity = 1
  Basis Set: 6-31G*
   => B3LYP-D3 Composite Functional <=
  Basis Set:
  @DF-RKS Final Energy:  -381.46194147829300
    Total Energy =                       -381.4619414782929425
    Molecular point group: c1
  Basis Set: 6-31G*
  Basis Set:
   => B3LYP-D3 Composite Functional <=
  Basis Set: 6-31G*
   => B3LYP-D3 Composite Functional <=
  Basis Set:
  @DF-RKS Final Energy:  -381.46364572215271
    Total Energy =                       -381.4636457221526484
  Basis Set: 6-31G*
  Basis Set:
   => B3LYP-D3 Composite Functional <=
  Basis Set: 6-31G*
   => B3LYP-D3 Composite Functional <=
  Basis Set:
  @DF-RKS Final Energy:  -381.46398223308194
    Total Energy =                       -381.4639822330819356
  Basis Set: 6-31G*
  Basis Set:
   => B3LYP-D3 Composite Functional <=
  Basis Set:
  @DF-RKS Final Energy:  -381.46400562791951
    Total Energy =                       -381.4640056279195051
  Basis Set: 6-31G*
  Basis Set:
   => B3LYP-D3 Composite Functional <=
  Basis Set: 6-31G*
   => B3LYP-D3 Composite Functional <=
  Basis Set:
  @DF-RKS Final Energy:  -381.46401021550002
    Total Energy =                       -381.4640102155000818
  Basis Set: 6-31G*
  Basis Set:
   => B3LYP-D3 Composite Functional <=
  Charge       = 1
  Multiplicity = 1
  Basis Set: 6-31G*
   => B3LYP-D3 Composite Functional <=
  Basis Set:

    Orbital Energies (a.u.)
    -----------------------

    Doubly Occupied:

       1A    -14.577051     2A    -14.577038     3A    -10.503717
       4A    -10.367583     5A    -10.348148     6A    -10.348138
       7A    -10.332921     8A    -10.332768     9A    -10.331803
      10A     -1.191335    11A     -1.100470    12A     -1.008185
      13A     -0.921474    14A     -0.894291    15A     -0.845773
      16A     -0.788444    17A     -0.764943    18A     -0.755911
      19A     -0.727768    20A     -0.692343    21A     -0.666561
      22A     -0.623962    23A     -0.615002    24A     -0.577231
      25A     -0.572444    26A     -0.566683    27A     -0.514988
      28A     -0.495674    29A     -0.490878    30A     -0.480801
      31A     -0.403740    32A     -0.397434

  @DF-RKS Final Energy:  -381.46401072856986

   => Energetics <=

    Nuclear Repulsion Energy =            416.1222848006826780
    One-Electron Energy =               -1327.5955915896374790
    Two-Electron Energy =                 574.4249289965890739
    DFT Exchange-Correlation Energy =     -44.4040065862040478
    Empirical Dispersion Energy =          -0.0116263500000000
    PCM Polarization Energy =               0.0000000000000000
    EFP Energy =                            0.0000000000000000
    Total Energy =                       -381.4640107285697468
    Molecular point group: c1
  Basis Set: 6-31G*
  Basis Set:
   => B3LYP-D3 Composite Functional <=

  -Total Gradient:
     Atom            X                  Y                   Z
    ------   -----------------  -----------------  -----------------
       1        0.000001878645     0.000048423379     0.000045094719
       2        0.000031487794    -0.000023035246    -0.000019233250
       3       -0.000015875042     0.000000759090     0.000007316236
       4       -0.000012032519     0.000005147190    -0.000008274734
       5        0.000012643323    -0.000003368086     0.000000374278
       6       -0.000026832075    -0.000011552942    -0.000019431192
       7        0.000026307669    -0.000000934355    -0.000041936729
       8       -0.000010764035     0.000002067913     0.000003791121
       9        0.000002320072    -0.000003091015     0.000001408209
      10        0.000004803956    -0.000000191636     0.000002453925
      11       -0.000000260319     0.000001761507     0.000003214989
      12        0.000011586431     0.000000336565     0.000001475078
      13       -0.000011410492    -0.000026496259     0.000035694856
      14       -0.000011958117    -0.000023998151     0.000005258975
      15       -0.000001526939     0.000009374164     0.000021548624
      16        0.000014129299     0.000008396777    -0.000015799014
      17       -0.000017643322     0.000009165889    -0.000025985651
      18        0.000003262178     0.000007219140     0.000008281460

  **** Optimization is complete! (in 6 steps) ****
    Final optimized geometry and variables:
    Molecular point group: c1

    Geometry (in Angstrom), charge = 1, multiplicity = 1:

    C            0.000260785768     0.000144746727    -0.173093678754
    C            0.040959981009     1.221061080375     0.514479240639
    C            0.040274031520     1.212226444394     1.908830135184
    C           -0.000258247985     0.000020797744     2.602535499357
    C           -0.040454079915    -1.212157160702     1.908727361777
    C           -0.040631802657    -1.220882202483     0.514391731608
    C            0.000133700981    -0.000077019874    -1.658534606071
    H            0.072189847806     2.160742783398    -0.029724611668
    H            0.071514828048     2.151886771909     2.451015474182
    H           -0.000383960403    -0.000019463634     3.688138553680
    H           -0.071800031390    -2.151852625053     2.450852318946
    H           -0.071682288685    -2.160492634881    -0.029939012075
    N            1.155662478305    -0.038641590999    -2.302033610812
    N           -1.155664512476     0.037962255631    -2.301649746178
    H           -1.235924889326     0.040778728051    -3.313469134273
    H           -2.015434975199     0.067049232913    -1.767434369427
    H            2.015690459192    -0.066630523243    -1.768190952186
    H            1.235550675407    -0.041122620275    -3.313899593930

  Mulliken Charges: (a.u.)
   Center  Symbol    Alpha    Beta     Spin     Total
       1     C     2.99542  2.99542  0.00000  0.00917
       2     C     3.07010  3.07010  0.00000 -0.14020
       3     C     3.06290  3.06290  0.00000 -0.12580
       4     C     3.05379  3.05379  0.00000 -0.10758
       5     C     3.06290  3.06290  0.00000 -0.12579
       6     C     3.07008  3.07008  0.00000 -0.14016
       7     C     2.74885  2.74885  0.00000  0.50231
       8     H     0.41373  0.41373  0.00000  0.17254
       9     H     0.40754  0.40754  0.00000  0.18492
      10     H     0.40701  0.40701  0.00000  0.18598
      11     H     0.40754  0.40754  0.00000  0.18492
      12     H     0.41373  0.41373  0.00000  0.17255
      13     N     3.84327  3.84327  0.00000 -0.68654
      14     N     3.84326  3.84326  0.00000 -0.68653
      15     H     0.30491  0.30491  0.00000  0.39017
      16     H     0.29504  0.29504  0.00000  0.40993
      17     H     0.29503  0.29503  0.00000  0.40993
      18     H     0.30491  0.30491  0.00000  0.39018

   Total alpha = 32.00000, Total beta = 32.00000, Total charge =  1.00000

*** Psi4 exiting successfully. Buy a developer a beer!
