                               Psi4 1.1 release

  ==> Input File <==

--------------------------------------------------------------------------
set {
	reference rks
	basis 6-31G*
}

set_num_threads( 8 )
memory 2 gb

molecule MOL {
1 1

C	 -0.000000	 -0.000000	 -0.191639
C	 0.958853	 -0.754201	 0.510391
C	 0.956743	 -0.746533	 1.901670
C	 -0.000000	 0.000000	 2.596333
C	 -0.956743	 0.746533	 1.901670
C	 -0.958853	 0.754202	 0.510391
C	 -0.000000	 -0.000000	 -1.658508
H	 1.730111	 -1.301151	 -0.024627
H	 1.706212	 -1.313620	 2.444112
H	 -0.000000	 0.000000	 3.681982
H	 -1.706212	 1.313619	 2.444112
H	 -1.730111	 1.301151	 -0.024627
N	 -0.712589	 -0.905950	 -2.322235
N	 0.712590	 0.905950	 -2.322235
H	 0.673432	 1.006470	 -3.329771
H	 1.377190	 1.485970	 -1.827091
H	 -1.377189	 -1.485970	 -1.827091
H	 -0.673431	 -1.006470	 -3.329771

	symmetry c1
}
set optking { dynamic_level = 1 }
set optking {
	frozen_dihedral = ("
		2 1 7 13
	")
}

ee,wfn = optimize('b3lyp-d3', return_wfn=True)
oeprop( wfn, 'DIPOLE', 'QUADRUPOLE', 'MULLIKEN_CHARGES')
f=open( 'psi4out.xyz', 'w' )
f.write( "18  " )
f.write( str(ee) + "\n" )
f.write( MOL.save_string_xyz() )
f.close()
--------------------------------------------------------------------------

    Molecular point group: c1
  Charge       = 1
  Multiplicity = 1
  Basis Set: 6-31G*
    Blend: 6-31G*
   => B3LYP Composite Functional <=
  Basis Set: (6-31G* AUX)
    Blend: CC-PVDZ-JKFIT
  @DF-RKS Final Energy:  -381.46194142354739
    Total Energy =                       -381.4619414235473869
    Molecular point group: c1
  Basis Set: 6-31G*
    Blend: 6-31G*
  Basis Set: (6-31G* AUX)
    Blend: CC-PVDZ-JKFIT
   => B3LYP Composite Functional <=
  Basis Set: 6-31G*
    Blend: 6-31G*
   => B3LYP Composite Functional <=
  Basis Set: (6-31G* AUX)
    Blend: CC-PVDZ-JKFIT
  @DF-RKS Final Energy:  -381.46364572014232
    Total Energy =                       -381.4636457201422672
  Basis Set: 6-31G*
    Blend: 6-31G*
  Basis Set: (6-31G* AUX)
  @DF-RKS Final Energy:  -381.46398223314515
    Total Energy =                       -381.4639822331451455
  @DF-RKS Final Energy:  -381.46400562626792
    Total Energy =                       -381.4640056262679764
   => B3LYP Composite Functional <=
  Basis Set: (6-31G* AUX)
    Blend: CC-PVDZ-JKFIT
  @DF-RKS Final Energy:  -381.46401021488731
    Total Energy =                       -381.4640102148873666
  Basis Set: 6-31G*
    Blend: 6-31G*
  Basis Set: (6-31G* AUX)
    Blend: CC-PVDZ-JKFIT
   => B3LYP Composite Functional <=
  Charge       = 1
  Multiplicity = 1
  Basis Set: 6-31G*
    Blend: 6-31G*
   => B3LYP Composite Functional <=
  Basis Set: (6-31G* AUX)
    Blend: CC-PVDZ-JKFIT

    Orbital Energies (a.u.)
    -----------------------

    Doubly Occupied:

       1A    -14.577051     2A    -14.577038     3A    -10.503717
       4A    -10.367583     5A    -10.348148     6A    -10.348138
       7A    -10.332922     8A    -10.332768     9A    -10.331803
      10A     -1.191335    11A     -1.100470    12A     -1.008185
      13A     -0.921474    14A     -0.894291    15A     -0.845773
      16A     -0.788444    17A     -0.764943    18A     -0.755911
      19A     -0.727768    20A     -0.692343    21A     -0.666561
      22A     -0.623962    23A     -0.615002    24A     -0.577231
      25A     -0.572444    26A     -0.566684    27A     -0.514988
      28A     -0.495674    29A     -0.490878    30A     -0.480801
      31A     -0.403740    32A     -0.397434

  @DF-RKS Final Energy:  -381.46401072825324

   => Energetics <=

    Nuclear Repulsion Energy =            416.1222968599630576
    One-Electron Energy =               -1327.5956174266661947
    Two-Electron Energy =                 574.4249429560179578
    DFT Exchange-Correlation Energy =     -44.4040067675680703
    Empirical Dispersion Energy =          -0.0116263500000000
    PCM Polarization Energy =               0.0000000000000000
    EFP Energy =                            0.0000000000000000
    Total Energy =                       -381.4640107282532426
    Molecular point group: c1
  Basis Set: 6-31G*
    Blend: 6-31G*
  Basis Set: (6-31G* AUX)
    Blend: CC-PVDZ-JKFIT
   => B3LYP Composite Functional <=

  -Total Gradient:
     Atom            X                  Y                   Z
    ------   -----------------  -----------------  -----------------
       1        0.000037854711    -0.000030338599     0.000045497933
       2       -0.000037306063    -0.000011566377    -0.000019163638
       3        0.000010017197     0.000012336260     0.000007198019
       4        0.000011317193     0.000006603287    -0.000008382925
       5       -0.000010190585    -0.000008195950     0.000000307726
       6        0.000006723865     0.000028397097    -0.000019417966
       7       -0.000016335998    -0.000020525109    -0.000042219695
       8        0.000007955036     0.000007502388     0.000003837225
       9       -0.000003900382     0.000000002609     0.000001381490
      10       -0.000003017630    -0.000003741424     0.000002461438
      11        0.000001578145    -0.000000843687     0.000003200929
      12       -0.000006529003    -0.000009577527     0.000001510633
      13       -0.000014557613     0.000024885132     0.000035651748
      14       -0.000012205000     0.000023875264     0.000005262660
      15        0.000008445038    -0.000004359212     0.000021620731
      16       -0.000001696238    -0.000016415447    -0.000015837444
      17        0.000017892601     0.000008789563    -0.000026006935
      18        0.000003872484    -0.000006912475     0.000008350039

  **** Optimization is complete! (in 6 steps) ****
    Final optimized geometry and variables:
    Molecular point group: c1

    Geometry (in Angstrom), charge = 1, multiplicity = 1:

    C            0.000010743414    -0.000300807256    -0.183804883737
    C            0.957713550297    -0.758652763672     0.503768241184
    C            0.951016141331    -0.752850146557     1.898119059254
    C            0.000219336296     0.000191031317     2.591824220968
    C           -0.950755135353     0.752944842567     1.898015873795
    C           -0.957666166338     0.758272929818     0.503680256563
    C           -0.000091972026    -0.000066332510    -1.669245891667
    H            1.694868290519    -1.342244948085    -0.040435463923
    H            1.688147323011    -1.336438110789     2.440304552875
    H            0.000261573819     0.000316371618     3.677427277259
    H           -1.687852198070     1.336638567522     2.440140566428
    H           -1.694870146647     1.341678308550    -0.040650762145
    N           -0.717865892877    -0.906451582422    -2.312745110838
    N            0.717419667282     0.906848047020    -2.312360761401
    H            0.767385760342     0.969721569829    -3.324180102738
    H            1.251795005721     1.581009797583    -1.778145232509
    H           -1.251511256614    -1.581473210150    -1.778902587301
    H           -0.767340708040    -0.969224983477    -3.324611061642

  Mulliken Charges: (a.u.)
   Center  Symbol    Alpha    Beta     Spin     Total
       1     C     2.99542  2.99542  0.00000  0.00917
       2     C     3.07010  3.07010  0.00000 -0.14020
       3     C     3.06290  3.06290  0.00000 -0.12580
       4     C     3.05379  3.05379  0.00000 -0.10758
       5     C     3.06290  3.06290  0.00000 -0.12579
       6     C     3.07008  3.07008  0.00000 -0.14016
       7     C     2.74885  2.74885  0.00000  0.50231
       8     H     0.41373  0.41373  0.00000  0.17254
       9     H     0.40754  0.40754  0.00000  0.18492
      10     H     0.40701  0.40701  0.00000  0.18598
      11     H     0.40754  0.40754  0.00000  0.18492
      12     H     0.41373  0.41373  0.00000  0.17255
      13     N     3.84327  3.84327  0.00000 -0.68654
      14     N     3.84326  3.84326  0.00000 -0.68653
      15     H     0.30491  0.30491  0.00000  0.39017
      16     H     0.29504  0.29504  0.00000  0.40993
      17     H     0.29503  0.29503  0.00000  0.40993
      18     H     0.30491  0.30491  0.00000  0.39018

   Total alpha = 32.00000, Total beta = 32.00000, Total charge =  1.00000

*** Psi4 exiting successfully. Buy a developer a beer!
