                              Psi4 1.0.54 Driver

  ==> Input File <==

--------------------------------------------------------------------------
set_num_threads(1)
set_memory(3145728000)

set { reference rks }
set { basis 6-31G* }

molecule MOL {
    1 1
    noreorient
    nocom
    symmetry c1
    C    0.000000   0.000000  -0.177864
    C    0.036678   1.219374   0.524165
    C    0.031764   1.213119   1.915444
    C   -0.000000  -0.000000   2.610107
    C   -0.031764  -1.213119   1.915444
    C   -0.036677  -1.219374   0.524165
    C    0.000000  -0.000000  -1.644734
    H    0.018170   2.164705  -0.010853
    H    0.042402   2.152895   2.457886
    H   -0.000000  -0.000000   3.695756
    H   -0.042402  -2.152895   2.457886
    H   -0.018170  -2.164705  -0.010853
    N   -0.712590  -0.905950  -2.308460
    N    0.712590   0.905950  -2.308461
    H    0.673432   1.006469  -3.315997
    H    1.377190   1.485970  -1.813317
    H   -0.250347  -1.546854  -2.940013
    H   -1.707257  -1.036195  -2.165489
}

set optking { frozen_dihedral = (" 1 7 13 17 ") }

set optking { dynamic_level = 1
 geom_maxiter = 250
 print_trajectory_xyz_file = True }

energy, wfn = optimize('B3LYP-D3', return_wfn=True)

import os
os.chdir(os.environ['HTMD_PSI4_WORKDIR'])

oeprop(wfn, 'DIPOLE', 'QUADRUPOLE', 'MULLIKEN_CHARGES')

with open('psi4out.xyz', 'w') as f:
    f.write('18 ' )
    f.write('%.12f\n' % energy)
    f.write(MOL.save_string_xyz())
--------------------------------------------------------------------------

    Molecular point group: c1
  Charge       = 1
  Multiplicity = 1
  Basis Set: 6-31G*
   => B3LYP-D3 Composite Functional <=
  Basis Set:
  @DF-RKS Final Energy:  -381.44714028583695
    Total Energy =                       -381.4471402858370084
    Molecular point group: c1
  Basis Set: 6-31G*
  Basis Set:
   => B3LYP-D3 Composite Functional <=
  Basis Set: 6-31G*
   => B3LYP-D3 Composite Functional <=
  Basis Set:
  @DF-RKS Final Energy:  -381.45489492352448
    Total Energy =                       -381.4548949235245914
  Basis Set: 6-31G*
  Basis Set:
   => B3LYP-D3 Composite Functional <=
  Basis Set: 6-31G*
   => B3LYP-D3 Composite Functional <=
  Basis Set:
  @DF-RKS Final Energy:  -381.45743776999245
    Total Energy =                       -381.4574377699925094
  Basis Set: 6-31G*
  Basis Set:
  @DF-RKS Final Energy:  -381.46031619020101
    Total Energy =                       -381.4603161902010697
  @DF-RKS Final Energy:  -381.46053285604205
    Total Energy =                       -381.4605328560420503
   => B3LYP-D3 Composite Functional <=
  Basis Set:
  @DF-RKS Final Energy:  -381.46054917812677
    Total Energy =                       -381.4605491781269393
  Basis Set: 6-31G*
  Basis Set:
   => B3LYP-D3 Composite Functional <=
  Basis Set: 6-31G*
   => B3LYP-D3 Composite Functional <=
  Basis Set:
  @DF-RKS Final Energy:  -381.46055040306942
    Total Energy =                       -381.4605504030694192
  Basis Set: 6-31G*
  Basis Set:
   => B3LYP-D3 Composite Functional <=
  Charge       = 1
  Multiplicity = 1
  Basis Set: 6-31G*
   => B3LYP-D3 Composite Functional <=
  Basis Set:

    Orbital Energies (a.u.)
    -----------------------

    Doubly Occupied:

       1A    -14.572332     2A    -14.552036     3A    -10.496146
       4A    -10.377271     5A    -10.363307     6A    -10.362153
       7A    -10.351017     8A    -10.346162     9A    -10.346079
      10A     -1.179988    11A     -1.085732    12A     -1.019302
      13A     -0.929799    14A     -0.908123    15A     -0.843237
      16A     -0.784164    17A     -0.771983    18A     -0.739530
      19A     -0.729023    20A     -0.681830    21A     -0.674328
      22A     -0.633188    23A     -0.614509    24A     -0.587998
      25A     -0.583504    26A     -0.567251    27A     -0.523310
      28A     -0.511684    29A     -0.503245    30A     -0.470472
      31A     -0.418892    32A     -0.411656

  @DF-RKS Final Energy:  -381.46055048575170

   => Energetics <=

    Nuclear Repulsion Energy =            416.5374056383567449
    One-Electron Energy =               -1328.1741380346466030
    Two-Electron Energy =                 574.5869401834054315
    DFT Exchange-Correlation Energy =     -44.3987606328672371
    Empirical Dispersion Energy =          -0.0119976400000000
    PCM Polarization Energy =               0.0000000000000000
    EFP Energy =                            0.0000000000000000
    Total Energy =                       -381.4605504857516962
    Molecular point group: c1
  Basis Set: 6-31G*
  Basis Set:
   => B3LYP-D3 Composite Functional <=

  -Total Gradient:
     Atom            X                  Y                   Z
    ------   -----------------  -----------------  -----------------
       1        0.007073430465    -0.005012544775    -0.000008678581
       2       -0.000022930981     0.000007637979    -0.000003930791
       3        0.000002405180    -0.000011151215     0.000006759147
       4       -0.000002462267     0.000008431393     0.000004996115
       5        0.000004680446    -0.000005145616     0.000001577639
       6       -0.000008080286     0.000031067877    -0.000015470681
       7       -0.010444105947     0.004856190843     0.003125940809
       8        0.000008811482    -0.000001507096    -0.000006624780
       9        0.000003526269     0.000001402558    -0.000002342811
      10       -0.000001922987     0.000000441342    -0.000002209206
      11       -0.000000272722    -0.000001961313    -0.000005019973
      12        0.000001303331    -0.000012931800     0.000000756264
      13        0.001741512531     0.008231470515    -0.011707090019
      14       -0.000048170272     0.000020697775    -0.000026562765
      15       -0.000006367929     0.000016337607     0.000005936677
      16       -0.000024846351     0.000009123094     0.000008273559
      17        0.001625377997    -0.008169447592     0.008732773191
      18        0.000095267152     0.000033015826    -0.000134627770

  **** Optimization is complete! (in 8 steps) ****
    Final optimized geometry and variables:
    Molecular point group: c1

    Geometry (in Angstrom), charge = 1, multiplicity = 1:

    C           -0.050740730308     0.036903039338    -0.190213848997
    C            0.061878372734     1.243295462547     0.533151691143
    C            0.091767820528     1.217095022610     1.921795323950
    C            0.008980454738    -0.005306389693     2.598730252511
    C           -0.109973409692    -1.204617641945     1.888633016539
    C           -0.149184061920    -1.189154891043     0.499068558915
    C           -0.046038948390     0.047396403686    -1.647856131034
    H            0.075037686944     2.196543588187     0.011758737380
    H            0.164294951847     2.145448970017     2.478837209908
    H            0.033110929615    -0.022432996303     3.684068526817
    H           -0.164965014678    -2.149682093903     2.418934342643
    H           -0.204210896412    -2.126307942362    -0.046693769154
    N           -0.701772153753    -0.881749688484    -2.384893251274
    N            0.686762115930     0.932797258255    -2.310848083706
    H            0.613694141139     1.024208011816    -3.318480497751
    H            1.343585573423     1.533710601639    -1.828839458704
    H           -0.168527716320    -1.462781245808    -3.025727924270
    H           -1.390680115424    -1.425975468553    -1.876612694917

  Mulliken Charges: (a.u.)
   Center  Symbol    Alpha    Beta     Spin     Total
       1     C     2.94649  2.94649  0.00000  0.10701
       2     C     3.08216  3.08216  0.00000 -0.16432
       3     C     3.06207  3.06207  0.00000 -0.12415
       4     C     3.05009  3.05009  0.00000 -0.10018
       5     C     3.06215  3.06215  0.00000 -0.12430
       6     C     3.07944  3.07944  0.00000 -0.15888
       7     C     2.75213  2.75213  0.00000  0.49574
       8     H     0.41253  0.41253  0.00000  0.17495
       9     H     0.40373  0.40373  0.00000  0.19253
      10     H     0.40180  0.40180  0.00000  0.19639
      11     H     0.40393  0.40393  0.00000  0.19213
      12     H     0.41737  0.41737  0.00000  0.16525
      13     N     3.86398  3.86398  0.00000 -0.72796
      14     N     3.84812  3.84812  0.00000 -0.69623
      15     H     0.30069  0.30069  0.00000  0.39862
      16     H     0.30066  0.30066  0.00000  0.39869
      17     H     0.30446  0.30446  0.00000  0.39108
      18     H     0.30818  0.30818  0.00000  0.38363

   Total alpha = 32.00000, Total beta = 32.00000, Total charge =  1.00000

*** Psi4 exiting successfully. Buy a developer a beer!
