                               Psi4 1.1 release

  ==> Input File <==

--------------------------------------------------------------------------
set_num_threads(1)
set_memory(4203741184)

set { reference rks }
set { basis cc-pVDZ }

molecule MOL {
    0 1
    noreorient
    nocom
    symmetry c1
    O    1.141000   0.017000   0.083000
    C    2.558000   0.086000  -0.005000
    C    3.192000  -0.789000   1.067000
    O    2.199014  -1.594545   1.690253
    H    0.789000   0.590000  -0.620000
    H    2.874000   1.128000   0.115000
    H    2.871000  -0.243000  -1.001000
    H    3.680391  -0.170062   1.826162
    H    3.955677  -1.439922   0.626574
    H    2.656332  -2.129612   2.362153
}

set optking { frozen_dihedral = (" 1 2 3 4 ") }

energy, wfn = energy('B3LYP-D3', return_wfn=True)

import os
os.chdir(os.environ['HTMD_PSI4_WORKDIR'])

oeprop(wfn, 'DIPOLE', 'QUADRUPOLE', 'MULLIKEN_CHARGES')

with open('psi4out.xyz', 'w') as f:
    f.write('10 ' )
    f.write('%.12f\n' % energy)
    f.write(MOL.save_string_xyz())
--------------------------------------------------------------------------

    Molecular point group: c1

    Geometry (in Angstrom), charge = 0, multiplicity = 1:

       Center              X                  Y                   Z               Mass
    ------------   -----------------  -----------------  -----------------  -----------------
           O          1.141000000000     0.017000000000     0.083000000000    15.994914619560
           C          2.558000000000     0.086000000000    -0.005000000000    12.000000000000
           C          3.192000000000    -0.789000000000     1.067000000000    12.000000000000
           O          2.199014000000    -1.594545000000     1.690253000000    15.994914619560
           H          0.789000000000     0.590000000000    -0.620000000000     1.007825032070
           H          2.874000000000     1.128000000000     0.115000000000     1.007825032070
           H          2.871000000000    -0.243000000000    -1.001000000000     1.007825032070
           H          3.680391000000    -0.170062000000     1.826162000000     1.007825032070
           H          3.955677000000    -1.439922000000     0.626574000000     1.007825032070
           H          2.656332000000    -2.129612000000     2.362153000000     1.007825032070

  Charge       = 0
  Multiplicity = 1
  Basis Set: CC-PVDZ
    Blend: CC-PVDZ
   => B3LYP Composite Functional <=
  Basis Set: (CC-PVDZ AUX)
    Blend: CC-PVDZ-JKFIT

    Orbital Energies (a.u.)
    -----------------------

    Doubly Occupied:

       1A    -19.122072     2A    -19.122005     3A    -10.225684
       4A    -10.225496     5A     -1.016422     6A     -0.993702
       7A     -0.733964     8A     -0.599130     9A     -0.527163
      10A     -0.478480    11A     -0.459231    12A     -0.413582
      13A     -0.393382    14A     -0.326091    15A     -0.323783
      16A     -0.268010    17A     -0.242777

  @DF-RKS Final Energy:  -230.24437114149930

   => Energetics <=

    Nuclear Repulsion Energy =            133.2373784752253130
    One-Electron Energy =                -578.3881935964900549
    Two-Electron Energy =                 239.4514883635343381
    DFT Exchange-Correlation Energy =     -24.5410566537689157
    Empirical Dispersion Energy =          -0.0039877300000000
    PCM Polarization Energy =               0.0000000000000000
    EFP Energy =                            0.0000000000000000
    Total Energy =                       -230.2443711414993004

  Mulliken Charges: (a.u.)
   Center  Symbol    Alpha    Beta     Spin     Total
       1     O     4.12864  4.12864  0.00000 -0.25729
       2     C     2.93518  2.93518  0.00000  0.12964
       3     C     2.93533  2.93533  0.00000  0.12934
       4     O     4.12887  4.12887  0.00000 -0.25774
       5     H     0.43200  0.43200  0.00000  0.13600
       6     H     0.50232  0.50232  0.00000 -0.00465
       7     H     0.50181  0.50181  0.00000 -0.00363
       8     H     0.50169  0.50169  0.00000 -0.00338
       9     H     0.50220  0.50220  0.00000 -0.00440
      10     H     0.43195  0.43195  0.00000  0.13610

   Total alpha = 17.00000, Total beta = 17.00000, Total charge =  0.00000

*** Psi4 exiting successfully. Buy a developer a beer!
