                               Psi4 1.1 release

  ==> Input File <==

--------------------------------------------------------------------------
set_num_threads( 8 )
memory 2.000000 gb

set { reference rks }
set { basis cc-pVDZ }

molecule MOL {
    0 1
    noreorient
    nocom
    symmetry c1
    O    1.141000   0.017000   0.083000
    C    2.558000   0.086000  -0.005000
    C    3.192000  -0.789000   1.067000
    O    2.344548  -0.855366   2.207522
    H    0.789000   0.590000  -0.620000
    H    2.874000   1.128000   0.115000
    H    2.871000  -0.243000  -1.001000
    H    4.164107  -0.384123   1.365360
    H    3.356822  -1.802671   0.684662
    H    2.795574  -1.423021   2.856544
}

set optking { frozen_dihedral = (" 1 2 3 4, 2 3 4 10 ") }

energy, wfn = energy('B3LYP-D3', return_wfn=True)

import os
os.chdir(os.environ['HTMD_PSI4_WORKDIR'])

oeprop(wfn, 'DIPOLE', 'QUADRUPOLE', 'MULLIKEN_CHARGES')

with open('psi4out.xyz', 'w') as f:
    f.write('10 ' )
    f.write('%.12f\n' % energy)
    f.write(MOL.save_string_xyz())
--------------------------------------------------------------------------

    Molecular point group: c1

    Geometry (in Angstrom), charge = 0, multiplicity = 1:

       Center              X                  Y                   Z               Mass
    ------------   -----------------  -----------------  -----------------  -----------------
           O          1.141000000000     0.017000000000     0.083000000000    15.994914619560
           C          2.558000000000     0.086000000000    -0.005000000000    12.000000000000
           C          3.192000000000    -0.789000000000     1.067000000000    12.000000000000
           O          2.344548000000    -0.855366000000     2.207522000000    15.994914619560
           H          0.789000000000     0.590000000000    -0.620000000000     1.007825032070
           H          2.874000000000     1.128000000000     0.115000000000     1.007825032070
           H          2.871000000000    -0.243000000000    -1.001000000000     1.007825032070
           H          4.164107000000    -0.384123000000     1.365360000000     1.007825032070
           H          3.356822000000    -1.802671000000     0.684662000000     1.007825032070
           H          2.795574000000    -1.423021000000     2.856544000000     1.007825032070

  Charge       = 0
  Multiplicity = 1
  Basis Set: CC-PVDZ
    Blend: CC-PVDZ
   => B3LYP Composite Functional <=
  Basis Set: (CC-PVDZ AUX)
    Blend: CC-PVDZ-JKFIT

    Orbital Energies (a.u.)
    -----------------------

    Doubly Occupied:

       1A    -19.123007     2A    -19.122970     3A    -10.226550
       4A    -10.226357     5A     -1.016438     6A     -0.995320
       7A     -0.734008     8A     -0.600121     9A     -0.525381
      10A     -0.486269    11A     -0.452780    12A     -0.413820
      13A     -0.396499    14A     -0.331785    15A     -0.321754
      16A     -0.263680    17A     -0.249039

  @DF-RKS Final Energy:  -230.24888821348395

   => Energetics <=

    Nuclear Repulsion Energy =            132.8341206028347017
    One-Electron Energy =                -577.5627371028690504
    Two-Electron Energy =                 239.0222009051609291
    DFT Exchange-Correlation Energy =     -24.5383717086104980
    Empirical Dispersion Energy =          -0.0041009100000000
    PCM Polarization Energy =               0.0000000000000000
    EFP Energy =                            0.0000000000000000
    Total Energy =                       -230.2488882134839514

  Mulliken Charges: (a.u.)
   Center  Symbol    Alpha    Beta     Spin     Total
       1     O     4.13049  4.13049  0.00000 -0.26098
       2     C     2.93472  2.93472  0.00000  0.13055
       3     C     2.93485  2.93485  0.00000  0.13029
       4     O     4.13072  4.13072  0.00000 -0.26144
       5     H     0.43113  0.43113  0.00000  0.13774
       6     H     0.50085  0.50085  0.00000 -0.00171
       7     H     0.50277  0.50277  0.00000 -0.00553
       8     H     0.50265  0.50265  0.00000 -0.00529
       9     H     0.50074  0.50074  0.00000 -0.00147
      10     H     0.43108  0.43108  0.00000  0.13784

   Total alpha = 17.00000, Total beta = 17.00000, Total charge =  0.00000

*** Psi4 exiting successfully. Buy a developer a beer!
