                               Psi4 1.1 release

  ==> Input File <==

--------------------------------------------------------------------------
set {
	reference rks
	basis cc-pvdz
}

set_num_threads( 8 )
memory 2 gb

molecule MOL {
0 1

O	 1.014300	 -0.002300	 0.060500
O	 2.462400	 -0.107500	 -0.002400
H	 0.832155	 -0.961336	 0.051967
H	 2.655500	 0.713700	 0.488700

	symmetry c1
}
set optking { dynamic_level = 1 }
set optking {
	frozen_dihedral = ("
		3 1 2 4
	")
}

ee,wfn = energy('b3lyp-d3', return_wfn=True)
oeprop( wfn, 'DIPOLE', 'QUADRUPOLE', 'MULLIKEN_CHARGES')
f=open( 'psi4out.xyz', 'w' )
f.write( "4  " )
f.write( str(ee) + "\n" )
f.write( MOL.save_string_xyz() )
f.close()
--------------------------------------------------------------------------

    Molecular point group: c1

    Geometry (in Angstrom), charge = 0, multiplicity = 1:

       Center              X                  Y                   Z               Mass
    ------------   -----------------  -----------------  -----------------  -----------------
           O         -0.724374674830     0.056685064347     0.017148095948    15.994914619560
           O          0.723725325170    -0.048514935653    -0.045751904052    15.994914619560
           H         -0.906519674830    -0.902350935653     0.008615095948     1.007825032070
           H          0.916825325170     0.772685064347     0.445348095948     1.007825032070

  Charge       = 0
  Multiplicity = 1
  Basis Set: CC-PVDZ
    Blend: CC-PVDZ
   => B3LYP Composite Functional <=
  Basis Set: (CC-PVDZ AUX)
    Blend: CC-PVDZ-JKFIT

    Orbital Energies (a.u.)
    -----------------------

    Doubly Occupied:

       1A    -19.185959     2A    -19.185918     3A     -1.109969
       4A     -0.886391     5A     -0.500623     6A     -0.498253
       7A     -0.399234     8A     -0.343171     9A     -0.247982

  @DF-RKS Final Energy:  -151.55004770826764

   => Energetics <=

    Nuclear Repulsion Energy =             36.7868720828156484
    One-Electron Energy =                -281.5738480159049573
    Two-Electron Energy =                 107.7003251005239122
    DFT Exchange-Correlation Energy =     -14.4630729157022540
    Empirical Dispersion Energy =          -0.0003239600000000
    PCM Polarization Energy =               0.0000000000000000
    EFP Energy =                            0.0000000000000000
    Total Energy =                       -151.5500477082676412

  Mulliken Charges: (a.u.)
   Center  Symbol    Alpha    Beta     Spin     Total
       1     O     4.09139  4.09139  0.00000 -0.18279
       2     O     4.09137  4.09137  0.00000 -0.18275
       3     H     0.40861  0.40861  0.00000  0.18279
       4     H     0.40863  0.40863  0.00000  0.18275

   Total alpha =  9.00000, Total beta =  9.00000, Total charge = -0.00000

*** Psi4 exiting successfully. Buy a developer a beer!
