                               Psi4 1.1 release

  ==> Input File <==

--------------------------------------------------------------------------
set {
	reference rks
	basis cc-pvdz
}

set_num_threads( 8 )
memory 2 gb

molecule MOL {
0 1

O	 1.014300	 -0.002300	 0.060500
O	 2.462400	 -0.107500	 -0.002400
H	 0.983546	 0.908980	 0.409247
H	 2.655500	 0.713700	 0.488700

	symmetry c1
}
set optking { dynamic_level = 1 }
set optking {
	frozen_dihedral = ("
		3 1 2 4
	")
}

ee,wfn = energy('b3lyp-d3', return_wfn=True)
oeprop( wfn, 'DIPOLE', 'QUADRUPOLE', 'MULLIKEN_CHARGES')
f=open( 'psi4out.xyz', 'w' )
f.write( "4  " )
f.write( str(ee) + "\n" )
f.write( MOL.save_string_xyz() )
f.close()
--------------------------------------------------------------------------

    Molecular point group: c1

    Geometry (in Angstrom), charge = 0, multiplicity = 1:

       Center              X                  Y                   Z               Mass
    ------------   -----------------  -----------------  -----------------  -----------------
           O         -0.728861470563     0.001254253746     0.006559339817    15.994914619560
           O          0.719238529437    -0.103945746254    -0.056340660183    15.994914619560
           H         -0.759615470563     0.912534253746     0.355306339817     1.007825032070
           H          0.912338529437     0.717254253746     0.434759339817     1.007825032070

  Charge       = 0
  Multiplicity = 1
  Basis Set: CC-PVDZ
    Blend: CC-PVDZ
   => B3LYP Composite Functional <=
  Basis Set: (CC-PVDZ AUX)
    Blend: CC-PVDZ-JKFIT

    Orbital Energies (a.u.)
    -----------------------

    Doubly Occupied:

       1A    -19.192009     2A    -19.191980     3A     -1.122235
       4A     -0.887505     5A     -0.562248     6A     -0.428491
       7A     -0.400979     8A     -0.375732     9A     -0.247383

  @DF-RKS Final Energy:  -151.53387137497248

   => Energetics <=

    Nuclear Repulsion Energy =             36.8904047455465758
    One-Electron Energy =                -281.6465906816770257
    Two-Electron Energy =                 107.6857651632625164
    DFT Exchange-Correlation Energy =     -14.4632732521045160
    Empirical Dispersion Energy =          -0.0001773500000000
    PCM Polarization Energy =               0.0000000000000000
    EFP Energy =                            0.0000000000000000
    Total Energy =                       -151.5338713749724775

  Mulliken Charges: (a.u.)
   Center  Symbol    Alpha    Beta     Spin     Total
       1     O     4.07818  4.07818  0.00000 -0.15635
       2     O     4.07816  4.07816  0.00000 -0.15631
       3     H     0.42183  0.42183  0.00000  0.15635
       4     H     0.42184  0.42184  0.00000  0.15631

   Total alpha =  9.00000, Total beta =  9.00000, Total charge =  0.00000

*** Psi4 exiting successfully. Buy a developer a beer!
