                               Psi4 1.1 release

  ==> Input File <==

--------------------------------------------------------------------------
set {
	reference rks
	basis 6-31G*
}

set_num_threads( 8 )
memory 2 gb

molecule MOL {
1 1

C	 -0.000000	 -0.000000	 -0.191639
C	 -0.909246	 -0.813320	 0.510391
C	 -0.901328	 -0.812574	 1.901670
C	 -0.000000	 0.000000	 2.596333
C	 0.901328	 0.812574	 1.901670
C	 0.909247	 0.813320	 0.510391
C	 -0.000000	 -0.000000	 -1.658508
H	 -1.581814	 -1.477885	 -0.024627
H	 -1.589943	 -1.452183	 2.444112
H	 -0.000000	 0.000000	 3.681982
H	 1.589943	 1.452184	 2.444112
H	 1.581814	 1.477885	 -0.024627
N	 -0.712589	 -0.905950	 -2.322235
N	 0.712590	 0.905950	 -2.322235
H	 0.673432	 1.006470	 -3.329771
H	 1.377190	 1.485970	 -1.827091
H	 -1.377189	 -1.485970	 -1.827091
H	 -0.673431	 -1.006470	 -3.329771

	symmetry c1
}
set optking { dynamic_level = 1 }
set optking {
	frozen_dihedral = ("
		2 1 7 13
	")
}

ee,wfn = optimize('b3lyp-d3', return_wfn=True)
oeprop( wfn, 'DIPOLE', 'QUADRUPOLE', 'MULLIKEN_CHARGES')
f=open( 'psi4out.xyz', 'w' )
f.write( "18  " )
f.write( str(ee) + "\n" )
f.write( MOL.save_string_xyz() )
f.close()
--------------------------------------------------------------------------

    Molecular point group: c1
  Charge       = 1
  Multiplicity = 1
  Basis Set: 6-31G*
    Blend: 6-31G*
   => B3LYP Composite Functional <=
  Basis Set: (6-31G* AUX)
    Blend: CC-PVDZ-JKFIT
  @DF-RKS Final Energy:  -381.46304778934933
    Total Energy =                       -381.4630477893493321
    Molecular point group: c1
  Basis Set: 6-31G*
    Blend: 6-31G*
  Basis Set: (6-31G* AUX)
    Blend: CC-PVDZ-JKFIT
   => B3LYP Composite Functional <=
  Basis Set: 6-31G*
    Blend: 6-31G*
   => B3LYP Composite Functional <=
  Basis Set: (6-31G* AUX)
    Blend: CC-PVDZ-JKFIT
  @DF-RKS Final Energy:  -381.46517468823959
    Total Energy =                       -381.4651746882395855
  Basis Set: 6-31G*
    Blend: 6-31G*
  Basis Set: (6-31G* AUX)
  @DF-RKS Final Energy:  -381.46623506802803
    Total Energy =                       -381.4662350680280269
  @DF-RKS Final Energy:  -381.46677391977482
    Total Energy =                       -381.4667739197747665
  @DF-RKS Final Energy:  -381.46741205192194
    Total Energy =                       -381.4674120519218832
  @DF-RKS Final Energy:  -381.46753012106370
    Total Energy =                       -381.4675301210637599
  @DF-RKS Final Energy:  -381.46754563350657
    Total Energy =                       -381.4675456335065746
  @DF-RKS Final Energy:  -381.46754894885731
    Total Energy =                       -381.4675489488573135
   => B3LYP Composite Functional <=
  Basis Set: (6-31G* AUX)
    Blend: CC-PVDZ-JKFIT
  @DF-RKS Final Energy:  -381.46755005180864
    Total Energy =                       -381.4675500518086437
  Basis Set: 6-31G*
    Blend: 6-31G*
  Basis Set: (6-31G* AUX)
    Blend: CC-PVDZ-JKFIT
   => B3LYP Composite Functional <=
  Charge       = 1
  Multiplicity = 1
  Basis Set: 6-31G*
    Blend: 6-31G*
   => B3LYP Composite Functional <=
  Basis Set: (6-31G* AUX)
    Blend: CC-PVDZ-JKFIT

    Orbital Energies (a.u.)
    -----------------------

    Doubly Occupied:

       1A    -14.565656     2A    -14.565372     3A    -10.497665
       4A    -10.376716     5A    -10.360166     6A    -10.359813
       7A    -10.346277     8A    -10.342648     9A    -10.342605
      10A     -1.182974    11A     -1.089386    12A     -1.016661
      13A     -0.928535    14A     -0.905241    15A     -0.847456
      16A     -0.786114    17A     -0.776096    18A     -0.737532
      19A     -0.736338    20A     -0.688104    21A     -0.669372
      22A     -0.630635    23A     -0.611386    24A     -0.597420
      25A     -0.581737    26A     -0.576295    27A     -0.518401
      28A     -0.509135    29A     -0.500635    30A     -0.471425
      31A     -0.413487    32A     -0.407836

  @DF-RKS Final Energy:  -381.46755012223679

   => Energetics <=

    Nuclear Repulsion Energy =            416.7192984341354531
    One-Electron Energy =               -1328.5473037886090424
    Two-Electron Energy =                 574.7791976089155241
    DFT Exchange-Correlation Energy =     -44.4071535266787620
    Empirical Dispersion Energy =          -0.0115888500000000
    PCM Polarization Energy =               0.0000000000000000
    EFP Energy =                            0.0000000000000000
    Total Energy =                       -381.4675501222368439
    Molecular point group: c1
  Basis Set: 6-31G*
    Blend: 6-31G*
  Basis Set: (6-31G* AUX)
    Blend: CC-PVDZ-JKFIT
   => B3LYP Composite Functional <=

  -Total Gradient:
     Atom            X                  Y                   Z
    ------   -----------------  -----------------  -----------------
       1       -0.006850887304     0.006794879848    -0.000344730669
       2        0.003302249358    -0.003569194890     0.000166218483
       3       -0.000006461973    -0.000004165134    -0.000005001532
       4       -0.000002766297     0.000005582605     0.000005616397
       5        0.000010031347     0.000004278363    -0.000003266561
       6        0.000025804185    -0.000031751918     0.000002286108
       7        0.007639594303    -0.006328628273     0.000360938852
       8       -0.000001055569     0.000001086908    -0.000010199556
       9        0.000003442786    -0.000001075319     0.000002092748
      10        0.000001629951    -0.000001601164     0.000001072968
      11       -0.000004104250     0.000001272478     0.000003661209
      12       -0.000006514926     0.000005717911     0.000002584536
      13       -0.004110073904     0.003102674387    -0.000178228047
      14       -0.000008411591     0.000045353488    -0.000002859753
      15        0.000002521372    -0.000003302637     0.000006553908
      16       -0.000006094338    -0.000030731803    -0.000014750743
      17        0.000005850214     0.000007775843    -0.000000997836
      18        0.000005246955     0.000000593126     0.000003736449

  **** Optimization is complete! (in 10 steps) ****
    Final optimized geometry and variables:
    Molecular point group: c1

    Geometry (in Angstrom), charge = 1, multiplicity = 1:

    C           -0.026417780386     0.030314981681    -0.192888475491
    C           -0.935990584981    -0.775428175540     0.521421886335
    C           -0.920499051308    -0.787414368810     1.911136164947
    C            0.009606458048    -0.011081519426     2.608511568580
    C            0.932122700884     0.773674174436     1.911144010589
    C            0.925840348534     0.785766682563     0.521119736817
    C            0.011261041822    -0.006541752479    -1.660063641594
    H           -1.705106364592    -1.345191602196     0.008645728745
    H           -1.638561068617    -1.396237609931     2.450581335448
    H            0.019386473845    -0.022683007469     3.694010916912
    H            1.668003857258     1.361412488336     2.449971698944
    H            1.696039563099     1.352630543664     0.006782467245
    N           -0.664222620738    -0.934786775837    -2.337650590977
    N            0.661654594457     0.932864306118    -2.345435134564
    H            0.747241914582     0.906036373443    -3.354015786928
    H            1.012642327180     1.760863787899    -1.885399981319
    H           -1.007116668132    -1.764121930860    -1.873657437885
    H           -0.708306416440    -0.936612280715    -3.349402216842

  Mulliken Charges: (a.u.)
   Center  Symbol    Alpha    Beta     Spin     Total
       1     C     2.93472  2.93472  0.00000  0.13056
       2     C     3.08767  3.08767  0.00000 -0.17534
       3     C     3.06134  3.06134  0.00000 -0.12269
       4     C     3.05136  3.05136  0.00000 -0.10273
       5     C     3.06121  3.06121  0.00000 -0.12241
       6     C     3.08621  3.08621  0.00000 -0.17242
       7     C     2.70846  2.70846  0.00000  0.58308
       8     H     0.41813  0.41813  0.00000  0.16373
       9     H     0.40499  0.40499  0.00000  0.19002
      10     H     0.40280  0.40280  0.00000  0.19441
      11     H     0.40496  0.40496  0.00000  0.19007
      12     H     0.41885  0.41885  0.00000  0.16229
      13     N     3.87327  3.87327  0.00000 -0.74654
      14     N     3.87227  3.87227  0.00000 -0.74453
      15     H     0.30590  0.30590  0.00000  0.38820
      16     H     0.30034  0.30034  0.00000  0.39931
      17     H     0.30139  0.30139  0.00000  0.39722
      18     H     0.30612  0.30612  0.00000  0.38776

   Total alpha = 32.00000, Total beta = 32.00000, Total charge =  1.00000

*** Psi4 exiting successfully. Buy a developer a beer!
