                               Psi4 1.1 release

  ==> Input File <==

--------------------------------------------------------------------------
set {
	reference rks
	basis 6-31G*
}

set_num_threads( 8 )
memory 2 gb

molecule MOL {
1 1

C	 0.246378	 1.317506	 -2.254478
C	 1.482472	 1.959517	 -2.052094
C	 1.712003	 3.206994	 -2.623791
C	 0.714652	 3.821595	 -3.387193
C	 -0.516052	 3.188337	 -3.586132
C	 -0.753886	 1.936588	 -3.027313
C	 -0.000000	 -0.000000	 -1.658508
H	 2.275218	 1.467229	 -1.495818
H	 2.670804	 3.695288	 -2.483067
H	 0.897000	 4.796699	 -3.828278
H	 -1.292634	 3.674460	 -4.167628
H	 -1.726358	 1.467796	 -3.148847
N	 -0.712589	 -0.905950	 -2.322235
N	 0.489627	 -0.286337	 -0.455454
H	 0.426712	 -1.208880	 -0.041060
H	 0.887815	 0.448345	 0.114611
H	 -1.377189	 -1.485970	 -1.827091
H	 -0.673431	 -1.006470	 -3.329771

	symmetry c1
}
set optking { dynamic_level = 1 }
set optking {
	frozen_dihedral = ("
		1 7 13 17
	")
}

ee,wfn = optimize('b3lyp-d3', return_wfn=True)
oeprop( wfn, 'DIPOLE', 'QUADRUPOLE', 'MULLIKEN_CHARGES')
f=open( 'psi4out.xyz', 'w' )
f.write( "18  " )
f.write( str(ee) + "\n" )
f.write( MOL.save_string_xyz() )
f.close()
--------------------------------------------------------------------------

    Molecular point group: c1
  Charge       = 1
  Multiplicity = 1
  Basis Set: 6-31G*
    Blend: 6-31G*
   => B3LYP Composite Functional <=
  Basis Set: (6-31G* AUX)
    Blend: CC-PVDZ-JKFIT
  @DF-RKS Final Energy:  -381.46136167868531
    Total Energy =                       -381.4613616786853640
    Molecular point group: c1
  Basis Set: 6-31G*
    Blend: 6-31G*
  Basis Set: (6-31G* AUX)
    Blend: CC-PVDZ-JKFIT
   => B3LYP Composite Functional <=
  Basis Set: 6-31G*
    Blend: 6-31G*
   => B3LYP Composite Functional <=
  Basis Set: (6-31G* AUX)
    Blend: CC-PVDZ-JKFIT
  @DF-RKS Final Energy:  -381.46451312732654
    Total Energy =                       -381.4645131273264838
  Basis Set: 6-31G*
    Blend: 6-31G*
  Basis Set: (6-31G* AUX)
  @DF-RKS Final Energy:  -381.46627195821611
    Total Energy =                       -381.4662719582160548
  @DF-RKS Final Energy:  -381.46649281141748
    Total Energy =                       -381.4664928114174813
  @DF-RKS Final Energy:  -381.46651212403447
    Total Energy =                       -381.4665121240344092
   => B3LYP Composite Functional <=
  Basis Set: (6-31G* AUX)
    Blend: CC-PVDZ-JKFIT
  @DF-RKS Final Energy:  -381.46651466834857
    Total Energy =                       -381.4665146683485659
  Basis Set: 6-31G*
    Blend: 6-31G*
  Basis Set: (6-31G* AUX)
    Blend: CC-PVDZ-JKFIT
   => B3LYP Composite Functional <=
  Charge       = 1
  Multiplicity = 1
  Basis Set: 6-31G*
    Blend: 6-31G*
   => B3LYP Composite Functional <=
  Basis Set: (6-31G* AUX)
    Blend: CC-PVDZ-JKFIT

    Orbital Energies (a.u.)
    -----------------------

    Doubly Occupied:

       1A    -14.569066     2A    -14.560505     3A    -10.496084
       4A    -10.375082     5A    -10.360138     6A    -10.359036
       7A    -10.347247     8A    -10.343458     9A    -10.343288
      10A     -1.181414    11A     -1.088619    12A     -1.016829
      13A     -0.928094    14A     -0.905277    15A     -0.844005
      16A     -0.784437    17A     -0.771903    18A     -0.740910
      19A     -0.732171    20A     -0.685445    21A     -0.672005
      22A     -0.629602    23A     -0.615605    24A     -0.585695
      25A     -0.581593    26A     -0.571121    27A     -0.521375
      28A     -0.508541    29A     -0.500726    30A     -0.471345
      31A     -0.415692    32A     -0.408808

  @DF-RKS Final Energy:  -381.46651483980605

   => Energetics <=

    Nuclear Repulsion Energy =            416.7505431919878447
    One-Electron Energy =               -1328.6579967686807322
    Two-Electron Energy =                 574.8557092678353229
    DFT Exchange-Correlation Energy =     -44.4028054409484838
    Empirical Dispersion Energy =          -0.0119650900000000
    PCM Polarization Energy =               0.0000000000000000
    EFP Energy =                            0.0000000000000000
    Total Energy =                       -381.4665148398060524
    Molecular point group: c1
  Basis Set: 6-31G*
    Blend: 6-31G*
  Basis Set: (6-31G* AUX)
    Blend: CC-PVDZ-JKFIT
   => B3LYP Composite Functional <=

  -Total Gradient:
     Atom            X                  Y                   Z
    ------   -----------------  -----------------  -----------------
       1       -0.004735948601     0.001970101507     0.002477119409
       2        0.000004653301     0.000015947778     0.000007761189
       3       -0.000003831784    -0.000012365345    -0.000006291956
       4        0.000005594908     0.000006705348     0.000002281884
       5       -0.000003153198    -0.000011316966     0.000001035275
       6        0.000005398785    -0.000001812470     0.000027443555
       7        0.004983563850    -0.000946288103    -0.004362847591
       8       -0.000001340081    -0.000007162062     0.000003445167
       9        0.000000337179    -0.000004206469     0.000001479764
      10       -0.000000936538    -0.000002150259     0.000001134737
      11        0.000000115079    -0.000006569941    -0.000000910831
      12        0.000000002956    -0.000013587341    -0.000008226958
      13        0.005668006994    -0.006527473366     0.003202360378
      14        0.000051675653    -0.000014687805    -0.000008802572
      15        0.000001980266     0.000002394178     0.000000241950
      16        0.000001889018     0.000000739398    -0.000009094608
      17       -0.005968537855     0.005538815168    -0.001317952171
      18       -0.000013413401    -0.000012342694     0.000005287898

  **** Optimization is complete! (in 7 steps) ****
    Final optimized geometry and variables:
    Molecular point group: c1

    Geometry (in Angstrom), charge = 1, multiplicity = 1:

    C           -0.015367219011    -0.180695450452     0.064293819974
    C            1.202596825442     0.490378761359     0.293843853842
    C            1.414652868533     1.746190480237    -0.263275588160
    C            0.418647997422     2.340674884707    -1.045675669910
    C           -0.791288997257     1.678743028378    -1.277746616571
    C           -1.010788647902     0.418282272803    -0.732562747087
    C           -0.256152720635    -1.492109121642     0.663305620333
    H            1.995060844280     0.011052200927     0.861957196826
    H            2.358064161599     2.256896051407    -0.100151149977
    H            0.587010544447     3.322434856489    -1.477597963120
    H           -1.564900162253     2.149145788543    -1.875827764014
    H           -1.967907259529    -0.072801881140    -0.882575468816
    N           -0.983058139991    -2.423716010793     0.029773894334
    N            0.208145012285    -1.766785683583     1.878165654774
    H            0.163624751451    -2.699761597047     2.272311617785
    H            0.609235708809    -1.035981021762     2.451590865976
    H           -1.638835293613    -3.008697942397     0.536674114688
    H           -1.232381382782    -2.249573313947    -0.936244569560

  Mulliken Charges: (a.u.)
   Center  Symbol    Alpha    Beta     Spin     Total
       1     C     2.95195  2.95195  0.00000  0.09610
       2     C     3.08166  3.08166  0.00000 -0.16333
       3     C     3.06228  3.06228  0.00000 -0.12456
       4     C     3.05070  3.05070  0.00000 -0.10140
       5     C     3.06234  3.06234  0.00000 -0.12468
       6     C     3.08043  3.08043  0.00000 -0.16086
       7     C     2.73638  2.73638  0.00000  0.52724
       8     H     0.41303  0.41303  0.00000  0.17395
       9     H     0.40451  0.40451  0.00000  0.19098
      10     H     0.40277  0.40277  0.00000  0.19445
      11     H     0.40469  0.40469  0.00000  0.19062
      12     H     0.41644  0.41644  0.00000  0.16711
      13     N     3.86328  3.86328  0.00000 -0.72656
      14     N     3.85677  3.85677  0.00000 -0.71355
      15     H     0.30333  0.30333  0.00000  0.39334
      16     H     0.30035  0.30035  0.00000  0.39930
      17     H     0.30525  0.30525  0.00000  0.38951
      18     H     0.30382  0.30382  0.00000  0.39235

   Total alpha = 32.00000, Total beta = 32.00000, Total charge =  1.00000

*** Psi4 exiting successfully. Buy a developer a beer!
