                               Psi4 1.1 release

  ==> Input File <==

--------------------------------------------------------------------------
set_num_threads(1)
set_memory(3145728000)

set { reference rks }
set { basis 6-31G* }

molecule MOL {
    1 1
    noreorient
    nocom
    symmetry c1
    C    0.000000   0.000000  -0.177864
    C    0.036678   1.219374   0.524165
    C    0.031764   1.213119   1.915444
    C   -0.000000  -0.000000   2.610107
    C   -0.031764  -1.213119   1.915444
    C   -0.036677  -1.219374   0.524165
    C    0.000000  -0.000000  -1.644734
    H    0.018170   2.164705  -0.010853
    H    0.042402   2.152895   2.457886
    H   -0.000000  -0.000000   3.695756
    H   -0.042402  -2.152895   2.457886
    H   -0.018170  -2.164705  -0.010853
    N   -0.712590  -0.905950  -2.308460
    N    0.712590   0.905950  -2.308461
    H    0.673432   1.006469  -3.315997
    H    1.377190   1.485970  -1.813317
    H   -0.628486  -1.885763  -2.071444
    H   -1.399350  -0.658709  -3.011311
}

set optking { frozen_dihedral = (" 1 7 13 17 ") }

set optking { dynamic_level = 1
 geom_maxiter = 250
 print_trajectory_xyz_file = True }

energy, wfn = optimize('B3LYP-D3', return_wfn=True)

import os
os.chdir(os.environ['HTMD_PSI4_WORKDIR'])

oeprop(wfn, 'DIPOLE', 'QUADRUPOLE', 'MULLIKEN_CHARGES')

with open('psi4out.xyz', 'w') as f:
    f.write('18 ' )
    f.write('%.12f\n' % energy)
    f.write(MOL.save_string_xyz())
--------------------------------------------------------------------------

    Molecular point group: c1
  Charge       = 1
  Multiplicity = 1
  Basis Set: 6-31G*
    Blend: 6-31G*
   => B3LYP Composite Functional <=
  Basis Set: (6-31G* AUX)
    Blend: CC-PVDZ-JKFIT
  @DF-RKS Final Energy:  -381.44006002207112
    Total Energy =                       -381.4400600220711226
    Molecular point group: c1
  Basis Set: 6-31G*
    Blend: 6-31G*
  Basis Set: (6-31G* AUX)
    Blend: CC-PVDZ-JKFIT
   => B3LYP Composite Functional <=
  Basis Set: 6-31G*
    Blend: 6-31G*
   => B3LYP Composite Functional <=
  Basis Set: (6-31G* AUX)
    Blend: CC-PVDZ-JKFIT
  @DF-RKS Final Energy:  -381.44800739748621
    Total Energy =                       -381.4480073974862648
  Basis Set: 6-31G*
    Blend: 6-31G*
  Basis Set: (6-31G* AUX)
  @DF-RKS Final Energy:  -381.45272523988160
    Total Energy =                       -381.4527252398816586
  @DF-RKS Final Energy:  -381.45552618416480
    Total Energy =                       -381.4555261841648530
  @DF-RKS Final Energy:  -381.45776012792197
    Total Energy =                       -381.4577601279219721
  @DF-RKS Final Energy:  -381.45790874930111
    Total Energy =                       -381.4579087493011684
  @DF-RKS Final Energy:  -381.45792378689924
    Total Energy =                       -381.4579237868991868
  @DF-RKS Final Energy:  -381.45792633868336
    Total Energy =                       -381.4579263386833645
  @DF-RKS Final Energy:  -381.45792841899970
    Total Energy =                       -381.4579284189996429
  @DF-RKS Final Energy:  -381.45793083315124
    Total Energy =                       -381.4579308331512379
  @DF-RKS Final Energy:  -381.45793217983265
    Total Energy =                       -381.4579321798325964
  @DF-RKS Final Energy:  -381.36502060877069
    Total Energy =                       -381.3650206087706351
  @DF-RKS Final Energy:  -381.45793217983220
    Total Energy =                       -381.4579321798322553
  @DF-RKS Final Energy:  -381.45793770780233
    Total Energy =                       -381.4579377078023299
  @DF-RKS Final Energy:  -381.45794081778718
    Total Energy =                       -381.4579408177871755
  @DF-RKS Final Energy:  -381.45794344314379
    Total Energy =                       -381.4579434431437903
  @DF-RKS Final Energy:  -381.45794656781374
    Total Energy =                       -381.4579465678137353
  @DF-RKS Final Energy:  -381.45794947596289
    Total Energy =                       -381.4579494759628346
  @DF-RKS Final Energy:  -381.45795057597212
    Total Energy =                       -381.4579505759720632
  @DF-RKS Final Energy:  -381.45794876304734
    Total Energy =                       -381.4579487630473409
  @DF-RKS Final Energy:  -381.45795040965805
    Total Energy =                       -381.4579504096580536
  @DF-RKS Final Energy:  -381.45795057597223
    Total Energy =                       -381.4579505759722338
   => B3LYP Composite Functional <=
  Basis Set: (6-31G* AUX)
    Blend: CC-PVDZ-JKFIT
  @DF-RKS Final Energy:  -381.45795258679942
    Total Energy =                       -381.4579525867994221
  Basis Set: 6-31G*
    Blend: 6-31G*
  Basis Set: (6-31G* AUX)
    Blend: CC-PVDZ-JKFIT
   => B3LYP Composite Functional <=
  Charge       = 1
  Multiplicity = 1
  Basis Set: 6-31G*
    Blend: 6-31G*
   => B3LYP Composite Functional <=
  Basis Set: (6-31G* AUX)
    Blend: CC-PVDZ-JKFIT

    Orbital Energies (a.u.)
    -----------------------

    Doubly Occupied:

       1A    -14.576743     2A    -14.561993     3A    -10.501659
       4A    -10.376656     5A    -10.359693     6A    -10.359103
       7A    -10.344692     8A    -10.342054     9A    -10.341771
      10A     -1.186731    11A     -1.092856    12A     -1.016508
      13A     -0.929076    14A     -0.904585    15A     -0.847172
      16A     -0.784553    17A     -0.774363    18A     -0.741262
      19A     -0.731951    20A     -0.686787    21A     -0.669365
      22A     -0.629132    23A     -0.614390    24A     -0.590901
      25A     -0.579866    26A     -0.577425    27A     -0.517925
      28A     -0.508730    29A     -0.500308    30A     -0.476991
      31A     -0.411950    32A     -0.407028

  @DF-RKS Final Energy:  -381.45795278899880

   => Energetics <=

    Nuclear Repulsion Energy =            416.3901134861122841
    One-Electron Energy =               -1327.8648187971036805
    Two-Electron Energy =                 574.4273208151548715
    DFT Exchange-Correlation Energy =     -44.3988741931623565
    Empirical Dispersion Energy =          -0.0116941000000000
    PCM Polarization Energy =               0.0000000000000000
    EFP Energy =                            0.0000000000000000
    Total Energy =                       -381.4579527889987958
    Molecular point group: c1
  Basis Set: 6-31G*
    Blend: 6-31G*
  Basis Set: (6-31G* AUX)
    Blend: CC-PVDZ-JKFIT
   => B3LYP Composite Functional <=

  -Total Gradient:
     Atom            X                  Y                   Z
    ------   -----------------  -----------------  -----------------
       1       -0.007022572451     0.006204360665     0.000090349621
       2        0.000026183967     0.000020804167    -0.000007922542
       3       -0.000020236913    -0.000006809657     0.000002394958
       4        0.000003258144    -0.000002401532    -0.000001324003
       5        0.000021803713    -0.000008349525     0.000003852471
       6       -0.000088053448     0.000018886181     0.000000220446
       7        0.014155123049    -0.009958207078    -0.003225955194
       8       -0.000026943573    -0.000019465402    -0.000003390814
       9        0.000012149335    -0.000004309331    -0.000001893574
      10        0.000001595864    -0.000006346566     0.000002261858
      11        0.000002783072    -0.000005235584     0.000008594799
      12        0.000015687019    -0.000016869493    -0.000005726359
      13       -0.016743787827     0.005779970738     0.012153410710
      14        0.000090362510    -0.000115226559     0.000027168339
      15       -0.000023246275    -0.000029246965    -0.000010275175
      16       -0.000024033896    -0.000039628311    -0.000014504585
      17        0.009700314985    -0.001938268484    -0.008875292350
      18       -0.000082414922     0.000135996176    -0.000146616409

  **** Optimization is complete! (in 3 steps) ****
    Final optimized geometry and variables:
    Molecular point group: c1

    Geometry (in Angstrom), charge = 1, multiplicity = 1:

    C            0.012876146250    -0.016794546274    -0.164297546244
    C            0.122334659547     1.199556438063     0.537644840601
    C            0.121293062507     1.200576982080     1.928500441965
    C            0.031800680344    -0.004120936253     2.631324731901
    C           -0.070759510218    -1.215803520811     1.941445392692
    C           -0.087495012714    -1.225060840988     0.551541878073
    C           -0.008492354236    -0.024455545135    -1.632435980513
    H            0.142034789536     2.150235573179     0.012676959789
    H            0.180733592988     2.142638889833     2.463673731287
    H            0.036704781142     0.001416448550     3.716873925193
    H           -0.135327856664    -2.151678190328     2.486692345342
    H           -0.145667412699    -2.179379066382     0.035566551783
    N           -0.790556618472    -0.905562913161    -2.294000554517
    N            0.561770099991     0.964142415193    -2.308277722267
    H            0.499117537492     1.046661799363    -3.316566894290
    H            1.094566939212     1.677436634049    -1.827877869408
    H           -0.731217570952    -1.883400199771    -2.026712298718
    H           -0.807616501168    -0.825592004077    -3.308445374690

  Mulliken Charges: (a.u.)
   Center  Symbol    Alpha    Beta     Spin     Total
       1     C     2.92851  2.92851  0.00000  0.14299
       2     C     3.08497  3.08497  0.00000 -0.16993
       3     C     3.06177  3.06177  0.00000 -0.12354
       4     C     3.05131  3.05131  0.00000 -0.10262
       5     C     3.06258  3.06258  0.00000 -0.12516
       6     C     3.08149  3.08149  0.00000 -0.16299
       7     C     2.75285  2.75285  0.00000  0.49430
       8     H     0.41762  0.41762  0.00000  0.16476
       9     H     0.40507  0.40507  0.00000  0.18986
      10     H     0.40321  0.40321  0.00000  0.19358
      11     H     0.40498  0.40498  0.00000  0.19004
      12     H     0.42115  0.42115  0.00000  0.15771
      13     N     3.84600  3.84600  0.00000 -0.69199
      14     N     3.85856  3.85856  0.00000 -0.71712
      15     H     0.30401  0.30401  0.00000  0.39198
      16     H     0.29841  0.29841  0.00000  0.40318
      17     H     0.30321  0.30321  0.00000  0.39358
      18     H     0.31432  0.31432  0.00000  0.37137

   Total alpha = 32.00000, Total beta = 32.00000, Total charge =  1.00000

*** Psi4 exiting successfully. Buy a developer a beer!
