                               Psi4 1.1 release

  ==> Input File <==

--------------------------------------------------------------------------
set_num_threads(1)
set_memory(4203741184)

set { reference rks }
set { basis cc-pVDZ }

molecule MOL {
    0 1
    noreorient
    nocom
    symmetry c1
    C    0.940800  -0.041500  -0.056200
    C    2.276600  -0.041500  -0.056200
    H    0.380900   0.578300  -0.749400
    H    0.380900  -0.661400   0.637000
    H    2.836500  -0.904879  -0.401533
    H    2.836500   0.821913   0.289227
}

set optking { frozen_dihedral = (" 3 1 2 5 ") }

energy, wfn = energy('B3LYP-D3', return_wfn=True)

import os
os.chdir(os.environ['HTMD_PSI4_WORKDIR'])

oeprop(wfn, 'DIPOLE', 'QUADRUPOLE', 'MULLIKEN_CHARGES')

with open('psi4out.xyz', 'w') as f:
    f.write('6 ' )
    f.write('%.12f\n' % energy)
    f.write(MOL.save_string_xyz())
--------------------------------------------------------------------------

    Molecular point group: c1

    Geometry (in Angstrom), charge = 0, multiplicity = 1:

       Center              X                  Y                   Z               Mass
    ------------   -----------------  -----------------  -----------------  -----------------
           C          0.940800000000    -0.041500000000    -0.056200000000    12.000000000000
           C          2.276600000000    -0.041500000000    -0.056200000000    12.000000000000
           H          0.380900000000     0.578300000000    -0.749400000000     1.007825032070
           H          0.380900000000    -0.661400000000     0.637000000000     1.007825032070
           H          2.836500000000    -0.904879000000    -0.401533000000     1.007825032070
           H          2.836500000000     0.821913000000     0.289227000000     1.007825032070

  Charge       = 0
  Multiplicity = 1
  Basis Set: CC-PVDZ
    Blend: CC-PVDZ
   => B3LYP Composite Functional <=
  Basis Set: (CC-PVDZ AUX)
    Blend: CC-PVDZ-JKFIT

    Orbital Energies (a.u.)
    -----------------------

    Doubly Occupied:

       1A    -10.189629     2A    -10.188851     3A     -0.764695
       4A     -0.580206     5A     -0.448265     6A     -0.419074
       7A     -0.415033     8A     -0.195526

  @DF-RKS Final Energy:   -78.49480475720888

   => Energetics <=

    Nuclear Repulsion Energy =             33.3071342756709754
    One-Electron Energy =                -170.0438446758093392
    Two-Electron Energy =                  68.1880461479946689
    DFT Exchange-Correlation Energy =      -9.9453023950652035
    Empirical Dispersion Energy =          -0.0008381100000000
    PCM Polarization Energy =               0.0000000000000000
    EFP Energy =                            0.0000000000000000
    Total Energy =                        -78.4948047572088825

  Mulliken Charges: (a.u.)
   Center  Symbol    Alpha    Beta     Spin     Total
       1     C     3.03784  3.03784  0.00000 -0.07569
       2     C     3.03784  3.03784  0.00000 -0.07567
       3     H     0.48108  0.48108  0.00000  0.03784
       4     H     0.48108  0.48108  0.00000  0.03784
       5     H     0.48108  0.48108  0.00000  0.03783
       6     H     0.48108  0.48108  0.00000  0.03785

   Total alpha =  8.00000, Total beta =  8.00000, Total charge =  0.00000

*** Psi4 exiting successfully. Buy a developer a beer!
