                               Psi4 1.1 release

  ==> Input File <==

--------------------------------------------------------------------------
set {
	reference rks
	basis 6-31G*
}

set_num_threads( 8 )
memory 2 gb

molecule MOL {
1 1

C	 -0.671225	 0.940831	 -0.755181
C	 -0.210557	 2.266963	 -0.654075
C	 -0.854204	 3.155994	 0.200947
C	 -1.946973	 2.728999	 0.961707
C	 -2.404001	 1.410909	 0.866893
C	 -1.774378	 0.515244	 0.008359
C	 -0.000000	 -0.000000	 -1.658508
H	 0.610625	 2.614504	 -1.274649
H	 -0.510999	 4.183322	 0.266834
H	 -2.443756	 3.425320	 1.630272
H	 -3.243638	 1.079411	 1.469100
H	 -2.105921	 -0.518605	 -0.030015
N	 -0.712589	 -0.905950	 -2.322235
N	 1.320019	 0.054538	 -1.812253
H	 1.818719	 -0.508987	 -2.490858
H	 1.876493	 0.627749	 -1.191729
H	 -1.377189	 -1.485970	 -1.827091
H	 -0.673431	 -1.006470	 -3.329771

	symmetry c1
}
set optking { dynamic_level = 1 }
set optking {
	frozen_dihedral = ("
		1 7 13 17
	")
}

ee,wfn = optimize('b3lyp-d3', return_wfn=True)
oeprop( wfn, 'DIPOLE', 'QUADRUPOLE', 'MULLIKEN_CHARGES')
f=open( 'psi4out.xyz', 'w' )
f.write( "18  " )
f.write( str(ee) + "\n" )
f.write( MOL.save_string_xyz() )
f.close()
--------------------------------------------------------------------------

    Molecular point group: c1
  Charge       = 1
  Multiplicity = 1
  Basis Set: 6-31G*
    Blend: 6-31G*
   => B3LYP Composite Functional <=
  Basis Set: (6-31G* AUX)
    Blend: CC-PVDZ-JKFIT
  @DF-RKS Final Energy:  -381.44006001901096
    Total Energy =                       -381.4400600190110140
    Molecular point group: c1
  Basis Set: 6-31G*
    Blend: 6-31G*
  Basis Set: (6-31G* AUX)
    Blend: CC-PVDZ-JKFIT
   => B3LYP Composite Functional <=
  Basis Set: 6-31G*
    Blend: 6-31G*
   => B3LYP Composite Functional <=
  Basis Set: (6-31G* AUX)
    Blend: CC-PVDZ-JKFIT
  @DF-RKS Final Energy:  -381.44800739106597
    Total Energy =                       -381.4480073910660280
  Basis Set: 6-31G*
    Blend: 6-31G*
  Basis Set: (6-31G* AUX)
  @DF-RKS Final Energy:  -381.45272525081475
    Total Energy =                       -381.4527252508147512
  @DF-RKS Final Energy:  -381.45552617588032
    Total Energy =                       -381.4555261758803226
  @DF-RKS Final Energy:  -381.45776014121577
    Total Energy =                       -381.4577601412158288
  @DF-RKS Final Energy:  -381.45790876674943
    Total Energy =                       -381.4579087667494264
  @DF-RKS Final Energy:  -381.45792380477280
    Total Energy =                       -381.4579238047728040
  @DF-RKS Final Energy:  -381.45792635591238
    Total Energy =                       -381.4579263559123206
  @DF-RKS Final Energy:  -381.45792842817474
    Total Energy =                       -381.4579284281746823
  @DF-RKS Final Energy:  -381.45793083113961
    Total Energy =                       -381.4579308311395494
  @DF-RKS Final Energy:  -381.45793232107036
    Total Energy =                       -381.4579323210703024
  @DF-RKS Final Energy:  -381.45793083083527
    Total Energy =                       -381.4579308308352097
  @DF-RKS Final Energy:  -381.45793484451644
    Total Energy =                       -381.4579348445164442
  @DF-RKS Final Energy:  -381.45793841459283
    Total Energy =                       -381.4579384145928884
  @DF-RKS Final Energy:  -381.45794029707594
    Total Energy =                       -381.4579402970759361
  @DF-RKS Final Energy:  -381.45793771125932
    Total Energy =                       -381.4579377112593761
  @DF-RKS Final Energy:  -381.45794255492348
    Total Energy =                       -381.4579425549234202
  @DF-RKS Final Energy:  -381.45794432969257
    Total Energy =                       -381.4579443296925660
  @DF-RKS Final Energy:  -381.45794510899105
    Total Energy =                       -381.4579451089910549
  @DF-RKS Final Energy:  -381.45794490324647
    Total Energy =                       -381.4579449032465277
  @DF-RKS Final Energy:  -381.45794510648028
    Total Energy =                       -381.4579451064802811
  @DF-RKS Final Energy:  -381.45794510867103
    Total Energy =                       -381.4579451086709696
   => B3LYP Composite Functional <=
  Basis Set: (6-31G* AUX)
    Blend: CC-PVDZ-JKFIT
  @DF-RKS Final Energy:  -381.45794707500698
    Total Energy =                       -381.4579470750069845
  Basis Set: 6-31G*
    Blend: 6-31G*
  Basis Set: (6-31G* AUX)
    Blend: CC-PVDZ-JKFIT
   => B3LYP Composite Functional <=
  Charge       = 1
  Multiplicity = 1
  Basis Set: 6-31G*
    Blend: 6-31G*
   => B3LYP Composite Functional <=
  Basis Set: (6-31G* AUX)
    Blend: CC-PVDZ-JKFIT

    Orbital Energies (a.u.)
    -----------------------

    Doubly Occupied:

       1A    -14.576468     2A    -14.561705     3A    -10.501587
       4A    -10.376815     5A    -10.359962     6A    -10.359245
       7A    -10.344910     8A    -10.342172     9A    -10.341852
      10A     -1.186489    11A     -1.092550    12A     -1.016602
      13A     -0.929125    14A     -0.904754    15A     -0.847256
      16A     -0.784498    17A     -0.774530    18A     -0.741033
      19A     -0.732050    20A     -0.686947    21A     -0.669370
      22A     -0.629404    23A     -0.613848    24A     -0.591349
      25A     -0.579999    26A     -0.577634    27A     -0.517870
      28A     -0.508906    29A     -0.500429    30A     -0.476750
      31A     -0.412042    32A     -0.407143

  @DF-RKS Final Energy:  -381.45794718659113

   => Energetics <=

    Nuclear Repulsion Energy =            416.3715552217486788
    One-Electron Energy =               -1327.8254868332603564
    Two-Electron Energy =                 574.4066595739824379
    DFT Exchange-Correlation Energy =     -44.3989982890618080
    Empirical Dispersion Energy =          -0.0116768600000000
    PCM Polarization Energy =               0.0000000000000000
    EFP Energy =                            0.0000000000000000
    Total Energy =                       -381.4579471865911273
    Molecular point group: c1
  Basis Set: 6-31G*
    Blend: 6-31G*
  Basis Set: (6-31G* AUX)
    Blend: CC-PVDZ-JKFIT
   => B3LYP Composite Functional <=

  -Total Gradient:
     Atom            X                  Y                   Z
    ------   -----------------  -----------------  -----------------
       1       -0.000898659796     0.006131491272    -0.006741522732
       2       -0.000010820880     0.000090835863     0.000085572972
       3        0.000026630428    -0.000029738523     0.000037706340
       4        0.000039662852     0.000007867504     0.000025515525
       5        0.000015218781    -0.000021937020    -0.000107972309
       6       -0.000085130272    -0.000036153435    -0.000059868813
       7        0.004446125371    -0.012473613348     0.011152286697
       8        0.000063964244     0.000034685567    -0.000048215733
       9       -0.000013702916    -0.000004545041    -0.000030748214
      10       -0.000003527816     0.000018362917    -0.000008788212
      11        0.000004216143    -0.000004287859     0.000025880701
      12        0.000023918839     0.000008744719     0.000020027814
      13       -0.012540419427     0.015574655496    -0.006264347137
      14        0.000013115668    -0.000130973092     0.000127932067
      15        0.000015131793    -0.000009361858     0.000013324955
      16       -0.000046225200     0.000014786661    -0.000064062296
      17        0.008982207954    -0.009255996039     0.002108389480
      18       -0.000026461214     0.000091916353    -0.000279693559

  **** Optimization is complete! (in 3 steps) ****
    Final optimized geometry and variables:
    Molecular point group: c1

    Geometry (in Angstrom), charge = 1, multiplicity = 1:

    C            0.095573842392    -0.139529082126    -0.094724657838
    C            0.605575939670     1.163620601618     0.068836280142
    C           -0.030674252485     2.056299684952     0.924547976263
    C           -1.164503991850     1.657762440034     1.637862772972
    C           -1.673285118733     0.364498086599     1.485482055219
    C           -1.053260169498    -0.529210772450     0.620179936950
    C            0.749014407470    -1.081456678135    -1.012326610055
    H            1.454684396529     1.511812179851    -0.512397384227
    H            0.352505600544     3.066327239626     1.026510302729
    H           -1.655116518401     2.356703522200     2.308136843247
    H           -2.550734954697     0.053070100571     2.042641145994
    H           -1.453888680496    -1.535177943178     0.533573991047
    N            0.008705284047    -1.963966713185    -1.718721270679
    N            2.031694210578    -0.931318768790    -1.315604610335
    H            2.503007380955    -1.506905536283    -2.003927387412
    H            2.592788379812    -0.226856405851    -0.855026235805
    H           -0.673485973243    -2.521485655278    -1.214186730813
    H            0.508648782420    -2.547835482245    -2.385432344596

  Mulliken Charges: (a.u.)
   Center  Symbol    Alpha    Beta     Spin     Total
       1     C     2.92749  2.92749  0.00000  0.14501
       2     C     3.08516  3.08516  0.00000 -0.17031
       3     C     3.06172  3.06172  0.00000 -0.12343
       4     C     3.05127  3.05127  0.00000 -0.10254
       5     C     3.06262  3.06262  0.00000 -0.12524
       6     C     3.08142  3.08142  0.00000 -0.16284
       7     C     2.75179  2.75179  0.00000  0.49642
       8     H     0.41800  0.41800  0.00000  0.16399
       9     H     0.40505  0.40505  0.00000  0.18990
      10     H     0.40314  0.40314  0.00000  0.19372
      11     H     0.40496  0.40496  0.00000  0.19009
      12     H     0.42128  0.42128  0.00000  0.15743
      13     N     3.84700  3.84700  0.00000 -0.69400
      14     N     3.85924  3.85924  0.00000 -0.71848
      15     H     0.30405  0.30405  0.00000  0.39191
      16     H     0.29847  0.29847  0.00000  0.40305
      17     H     0.30318  0.30318  0.00000  0.39364
      18     H     0.31416  0.31416  0.00000  0.37167

   Total alpha = 32.00000, Total beta = 32.00000, Total charge =  1.00000

*** Psi4 exiting successfully. Buy a developer a beer!
