                               Psi4 1.1 release

  ==> Input File <==

--------------------------------------------------------------------------
set_num_threads(1)
set_memory(4203741184)

set { reference rks }
set { basis cc-pVDZ }

molecule MOL {
    0 1
    noreorient
    nocom
    symmetry c1
    O    1.141000   0.017000   0.083000
    C    2.558000   0.086000  -0.005000
    C    3.192000  -0.789000   1.067000
    O    4.610000  -0.719000   0.979000
    H    0.860947  -0.719185  -0.488003
    H    2.874000   1.128000   0.115000
    H    2.871000  -0.243000  -1.001000
    H    2.876000  -1.830000   0.947000
    H    2.879000  -0.459000   2.064000
    H    4.961000  -1.293000   1.682000
}

set optking { frozen_dihedral = (" 3 2 1 5 ") }

energy, wfn = energy('B3LYP-D3', return_wfn=True)

import os
os.chdir(os.environ['HTMD_PSI4_WORKDIR'])

oeprop(wfn, 'DIPOLE', 'QUADRUPOLE', 'MULLIKEN_CHARGES')

with open('psi4out.xyz', 'w') as f:
    f.write('10 ' )
    f.write('%.12f\n' % energy)
    f.write(MOL.save_string_xyz())
--------------------------------------------------------------------------

    Molecular point group: c1

    Geometry (in Angstrom), charge = 0, multiplicity = 1:

       Center              X                  Y                   Z               Mass
    ------------   -----------------  -----------------  -----------------  -----------------
           O          1.141000000000     0.017000000000     0.083000000000    15.994914619560
           C          2.558000000000     0.086000000000    -0.005000000000    12.000000000000
           C          3.192000000000    -0.789000000000     1.067000000000    12.000000000000
           O          4.610000000000    -0.719000000000     0.979000000000    15.994914619560
           H          0.860947000000    -0.719185000000    -0.488003000000     1.007825032070
           H          2.874000000000     1.128000000000     0.115000000000     1.007825032070
           H          2.871000000000    -0.243000000000    -1.001000000000     1.007825032070
           H          2.876000000000    -1.830000000000     0.947000000000     1.007825032070
           H          2.879000000000    -0.459000000000     2.064000000000     1.007825032070
           H          4.961000000000    -1.293000000000     1.682000000000     1.007825032070

  Charge       = 0
  Multiplicity = 1
  Basis Set: CC-PVDZ
    Blend: CC-PVDZ
   => B3LYP Composite Functional <=
  Basis Set: (CC-PVDZ AUX)
    Blend: CC-PVDZ-JKFIT

    Orbital Energies (a.u.)
    -----------------------

    Doubly Occupied:

       1A    -19.134952     2A    -19.131415     3A    -10.227141
       4A    -10.224732     5A     -1.020846     6A     -1.009508
       7A     -0.730847     8A     -0.611458     9A     -0.522777
      10A     -0.494480    11A     -0.451610    12A     -0.428085
      13A     -0.397199    14A     -0.338453    15A     -0.325891
      16A     -0.270048    17A     -0.264672

  @DF-RKS Final Energy:  -230.25820302675675

   => Energetics <=

    Nuclear Repulsion Energy =            129.7144044605716431
    One-Electron Energy =                -571.1441384417078098
    Two-Electron Energy =                 235.7146840068561744
    DFT Exchange-Correlation Energy =     -24.5385827124767708
    Empirical Dispersion Energy =          -0.0045703400000000
    PCM Polarization Energy =               0.0000000000000000
    EFP Energy =                            0.0000000000000000
    Total Energy =                       -230.2582030267567461

  Mulliken Charges: (a.u.)
   Center  Symbol    Alpha    Beta     Spin     Total
       1     O     4.13935  4.13935  0.00000 -0.27871
       2     C     2.93387  2.93387  0.00000  0.13225
       3     C     2.93851  2.93851  0.00000  0.12298
       4     O     4.14097  4.14097  0.00000 -0.28193
       5     H     0.42931  0.42931  0.00000  0.14137
       6     H     0.48732  0.48732  0.00000  0.02535
       7     H     0.49717  0.49717  0.00000  0.00566
       8     H     0.50739  0.50739  0.00000 -0.01479
       9     H     0.49796  0.49796  0.00000  0.00408
      10     H     0.42814  0.42814  0.00000  0.14373

   Total alpha = 17.00000, Total beta = 17.00000, Total charge =  0.00000

*** Psi4 exiting successfully. Buy a developer a beer!
