                               Psi4 1.1 release

  ==> Input File <==

--------------------------------------------------------------------------
set_num_threads(1)
set_memory(4203741184)

set { reference rks }
set { basis cc-pVDZ }

molecule MOL {
    0 1
    noreorient
    nocom
    symmetry c1
    O    1.050400   0.042900  -0.048100
    C    2.474100   0.047400  -0.029000
    C    3.002600  -1.068900  -0.932000
    N    4.462700  -1.072400  -1.006800
    H    0.760400   0.728400   0.578000
    H    2.809900  -0.097900   1.003200
    H    2.817400   1.026800  -0.378600
    H    2.581000  -0.963300  -1.938400
    H    2.653800  -2.036400  -0.553400
    H    4.753270  -1.431760  -1.915597
    H    4.824894  -1.731281  -0.317639
}

set optking { frozen_dihedral = (" 2 3 4 10 ") }

energy, wfn = energy('B3LYP-D3', return_wfn=True)

import os
os.chdir(os.environ['HTMD_PSI4_WORKDIR'])

oeprop(wfn, 'DIPOLE', 'QUADRUPOLE', 'MULLIKEN_CHARGES')

with open('psi4out.xyz', 'w') as f:
    f.write('11 ' )
    f.write('%.12f\n' % energy)
    f.write(MOL.save_string_xyz())
--------------------------------------------------------------------------

    Molecular point group: c1

    Geometry (in Angstrom), charge = 0, multiplicity = 1:

       Center              X                  Y                   Z               Mass
    ------------   -----------------  -----------------  -----------------  -----------------
           O          1.050400000000     0.042900000000    -0.048100000000    15.994914619560
           C          2.474100000000     0.047400000000    -0.029000000000    12.000000000000
           C          3.002600000000    -1.068900000000    -0.932000000000    12.000000000000
           N          4.462700000000    -1.072400000000    -1.006800000000    14.003074004780
           H          0.760400000000     0.728400000000     0.578000000000     1.007825032070
           H          2.809900000000    -0.097900000000     1.003200000000     1.007825032070
           H          2.817400000000     1.026800000000    -0.378600000000     1.007825032070
           H          2.581000000000    -0.963300000000    -1.938400000000     1.007825032070
           H          2.653800000000    -2.036400000000    -0.553400000000     1.007825032070
           H          4.753270000000    -1.431760000000    -1.915597000000     1.007825032070
           H          4.824894000000    -1.731281000000    -0.317639000000     1.007825032070

  Charge       = 0
  Multiplicity = 1
  Basis Set: CC-PVDZ
    Blend: CC-PVDZ
   => B3LYP Composite Functional <=
  Basis Set: (CC-PVDZ AUX)
    Blend: CC-PVDZ-JKFIT

    Orbital Energies (a.u.)
    -----------------------

    Doubly Occupied:

       1A    -19.123647     2A    -14.305910     3A    -10.218176
       4A    -10.201738     5A     -1.006059     6A     -0.877012
       7A     -0.710557     8A     -0.592915     9A     -0.503642
      10A     -0.492729    11A     -0.444453    12A     -0.418370
      13A     -0.392958    14A     -0.351265    15A     -0.323180
      16A     -0.257140    17A     -0.234166

  @DF-RKS Final Energy:  -210.39053606295178

   => Energetics <=

    Nuclear Repulsion Energy =            130.2808058493796466
    One-Electron Energy =                -543.5529057021066137
    Two-Electron Energy =                 226.3731316618431890
    DFT Exchange-Correlation Energy =     -23.4868165720680011
    Empirical Dispersion Energy =          -0.0047513000000000
    PCM Polarization Energy =               0.0000000000000000
    EFP Energy =                            0.0000000000000000
    Total Energy =                       -210.3905360629517816

  Mulliken Charges: (a.u.)
   Center  Symbol    Alpha    Beta     Spin     Total
       1     O     4.14084  4.14084  0.00000 -0.28168
       2     C     2.92247  2.92247  0.00000  0.15506
       3     C     2.99460  2.99460  0.00000  0.01079
       4     N     3.58930  3.58930  0.00000 -0.17861
       5     H     0.43012  0.43012  0.00000  0.13975
       6     H     0.50487  0.50487  0.00000 -0.00974
       7     H     0.50053  0.50053  0.00000 -0.00106
       8     H     0.49099  0.49099  0.00000  0.01802
       9     H     0.49892  0.49892  0.00000  0.00215
      10     H     0.46305  0.46305  0.00000  0.07390
      11     H     0.46430  0.46430  0.00000  0.07140

   Total alpha = 17.00000, Total beta = 17.00000, Total charge = -0.00000

*** Psi4 exiting successfully. Buy a developer a beer!
