                               Psi4 1.1 release

  ==> Input File <==

--------------------------------------------------------------------------
set_num_threads( 8 )
memory 2.000000 gb

set { reference rks }
set { basis cc-pVDZ }

molecule MOL {
    0 1
    noreorient
    nocom
    symmetry c1
    O    1.050400   0.042900  -0.048100
    C    2.474100   0.047400  -0.029000
    C    3.002600  -1.068900  -0.932000
    N    4.462700  -1.072400  -1.006800
    H    0.760400   0.728400   0.578000
    H    2.809900  -0.097900   1.003200
    H    2.817400   1.026800  -0.378600
    H    2.581000  -0.963300  -1.938400
    H    2.653800  -2.036400  -0.553400
    H    4.757474  -0.619804  -1.871524
    H    4.785452  -2.037631  -1.073216
}

set optking { frozen_dihedral = (" 2 3 4 10 ") }

energy, wfn = energy('B3LYP-D3', return_wfn=True)

import os
os.chdir(os.environ['HTMD_PSI4_WORKDIR'])

oeprop(wfn, 'DIPOLE', 'QUADRUPOLE', 'MULLIKEN_CHARGES')

with open('psi4out.xyz', 'w') as f:
    f.write('11 ' )
    f.write('%.12f\n' % energy)
    f.write(MOL.save_string_xyz())
--------------------------------------------------------------------------

    Molecular point group: c1

    Geometry (in Angstrom), charge = 0, multiplicity = 1:

       Center              X                  Y                   Z               Mass
    ------------   -----------------  -----------------  -----------------  -----------------
           O          1.050400000000     0.042900000000    -0.048100000000    15.994914619560
           C          2.474100000000     0.047400000000    -0.029000000000    12.000000000000
           C          3.002600000000    -1.068900000000    -0.932000000000    12.000000000000
           N          4.462700000000    -1.072400000000    -1.006800000000    14.003074004780
           H          0.760400000000     0.728400000000     0.578000000000     1.007825032070
           H          2.809900000000    -0.097900000000     1.003200000000     1.007825032070
           H          2.817400000000     1.026800000000    -0.378600000000     1.007825032070
           H          2.581000000000    -0.963300000000    -1.938400000000     1.007825032070
           H          2.653800000000    -2.036400000000    -0.553400000000     1.007825032070
           H          4.757474000000    -0.619804000000    -1.871524000000     1.007825032070
           H          4.785452000000    -2.037631000000    -1.073216000000     1.007825032070

  Charge       = 0
  Multiplicity = 1
  Basis Set: CC-PVDZ
    Blend: CC-PVDZ
   => B3LYP Composite Functional <=
  Basis Set: (CC-PVDZ AUX)
    Blend: CC-PVDZ-JKFIT

    Orbital Energies (a.u.)
    -----------------------

    Doubly Occupied:

       1A    -19.123241     2A    -14.305969     3A    -10.217598
       4A    -10.201672     5A     -1.005675     6A     -0.876955
       7A     -0.710344     8A     -0.592481     9A     -0.502343
      10A     -0.495020    11A     -0.438866    12A     -0.423744
      13A     -0.392523    14A     -0.348816    15A     -0.323702
      16A     -0.256826    17A     -0.234657

  @DF-RKS Final Energy:  -210.39048947060840

   => Energetics <=

    Nuclear Repulsion Energy =            130.2686693182441218
    One-Electron Energy =                -543.5355770756069660
    Two-Electron Energy =                 226.3680463493928698
    DFT Exchange-Correlation Energy =     -23.4869026626384141
    Empirical Dispersion Energy =          -0.0047254000000000
    PCM Polarization Energy =               0.0000000000000000
    EFP Energy =                            0.0000000000000000
    Total Energy =                       -210.3904894706084008

  Mulliken Charges: (a.u.)
   Center  Symbol    Alpha    Beta     Spin     Total
       1     O     4.14109  4.14109  0.00000 -0.28217
       2     C     2.92171  2.92171  0.00000  0.15657
       3     C     2.99576  2.99576  0.00000  0.00849
       4     N     3.58893  3.58893  0.00000 -0.17786
       5     H     0.43016  0.43016  0.00000  0.13968
       6     H     0.50117  0.50117  0.00000 -0.00234
       7     H     0.50439  0.50439  0.00000 -0.00877
       8     H     0.49757  0.49757  0.00000  0.00487
       9     H     0.49215  0.49215  0.00000  0.01570
      10     H     0.46388  0.46388  0.00000  0.07224
      11     H     0.46320  0.46320  0.00000  0.07360

   Total alpha = 17.00000, Total beta = 17.00000, Total charge = -0.00000

*** Psi4 exiting successfully. Buy a developer a beer!
