                               Psi4 1.1 release

  ==> Input File <==

--------------------------------------------------------------------------
set_num_threads(1)
set_memory(3145728000)

set { reference rks }
set { basis 6-31G* }

molecule MOL {
    1 1
    noreorient
    nocom
    symmetry c1
    C    0.000000   0.000000  -0.177864
    C    0.036678   1.219374   0.524165
    C    0.031764   1.213119   1.915444
    C   -0.000000  -0.000000   2.610107
    C   -0.031764  -1.213119   1.915444
    C   -0.036677  -1.219374   0.524165
    C    0.000000  -0.000000  -1.644734
    H    0.018170   2.164705  -0.010853
    H    0.042402   2.152895   2.457886
    H   -0.000000  -0.000000   3.695756
    H   -0.042402  -2.152895   2.457886
    H   -0.018170  -2.164705  -0.010853
    N    1.140612   0.165932  -2.308461
    N   -1.140612  -0.165933  -2.308460
    H   -1.181463  -0.265776  -3.315997
    H   -2.021932  -0.128638  -1.813316
    H    2.021932   0.128637  -1.813317
    H    1.181463   0.265775  -3.315997
}

set optking { frozen_dihedral = (" 2 1 7 13 ") }

set optking { dynamic_level = 1
 geom_maxiter = 250
 print_trajectory_xyz_file = True }

energy, wfn = optimize('B3LYP-D3', return_wfn=True)

import os
os.chdir(os.environ['HTMD_PSI4_WORKDIR'])

oeprop(wfn, 'DIPOLE', 'QUADRUPOLE', 'MULLIKEN_CHARGES')

with open('psi4out.xyz', 'w') as f:
    f.write('18 ' )
    f.write('%.12f\n' % energy)
    f.write(MOL.save_string_xyz())
--------------------------------------------------------------------------

    Molecular point group: c1
  Charge       = 1
  Multiplicity = 1
  Basis Set: 6-31G*
    Blend: 6-31G*
   => B3LYP Composite Functional <=
  Basis Set: (6-31G* AUX)
    Blend: CC-PVDZ-JKFIT
  @DF-RKS Final Energy:  -381.46298611613219
    Total Energy =                       -381.4629861161321855
    Molecular point group: c1
  Basis Set: 6-31G*
    Blend: 6-31G*
  Basis Set: (6-31G* AUX)
    Blend: CC-PVDZ-JKFIT
   => B3LYP Composite Functional <=
  Basis Set: 6-31G*
    Blend: 6-31G*
   => B3LYP Composite Functional <=
  Basis Set: (6-31G* AUX)
    Blend: CC-PVDZ-JKFIT
  @DF-RKS Final Energy:  -381.46437723735789
    Total Energy =                       -381.4643772373578940
  Basis Set: 6-31G*
    Blend: 6-31G*
  Basis Set: (6-31G* AUX)
  @DF-RKS Final Energy:  -381.46463207433970
    Total Energy =                       -381.4646320743397609
  @DF-RKS Final Energy:  -381.46465132025781
    Total Energy =                       -381.4646513202577580
   => B3LYP Composite Functional <=
  Basis Set: (6-31G* AUX)
    Blend: CC-PVDZ-JKFIT
  @DF-RKS Final Energy:  -381.46465547644323
    Total Energy =                       -381.4646554764431698
  Basis Set: 6-31G*
    Blend: 6-31G*
  Basis Set: (6-31G* AUX)
    Blend: CC-PVDZ-JKFIT
   => B3LYP Composite Functional <=
  Charge       = 1
  Multiplicity = 1
  Basis Set: 6-31G*
    Blend: 6-31G*
   => B3LYP Composite Functional <=
  Basis Set: (6-31G* AUX)
    Blend: CC-PVDZ-JKFIT

    Orbital Energies (a.u.)
    -----------------------

    Doubly Occupied:

       1A    -14.576169     2A    -14.576039     3A    -10.502885
       4A    -10.368079     5A    -10.348969     6A    -10.348862
       7A    -10.333790     8A    -10.333558     9A    -10.332879
      10A     -1.190479    11A     -1.099599    12A     -1.008807
      13A     -0.921991    14A     -0.895078    15A     -0.845546
      16A     -0.788100    17A     -0.765757    18A     -0.754638
      19A     -0.728116    20A     -0.691758    21A     -0.666885
      22A     -0.623534    23A     -0.615886    24A     -0.577724
      25A     -0.573090    26A     -0.567282    27A     -0.515479
      28A     -0.496617    29A     -0.491584    30A     -0.479917
      31A     -0.404620    32A     -0.398286

  @DF-RKS Final Energy:  -381.46465576175831

   => Energetics <=

    Nuclear Repulsion Energy =            416.2501732351294095
    One-Electron Energy =               -1327.8395180230377264
    Two-Electron Energy =                 574.5404503578595268
    DFT Exchange-Correlation Energy =     -44.4040797717095543
    Empirical Dispersion Energy =          -0.0116815600000000
    PCM Polarization Energy =               0.0000000000000000
    EFP Energy =                            0.0000000000000000
    Total Energy =                       -381.4646557617583653
    Molecular point group: c1
  Basis Set: 6-31G*
    Blend: 6-31G*
  Basis Set: (6-31G* AUX)
    Blend: CC-PVDZ-JKFIT
   => B3LYP Composite Functional <=

  -Total Gradient:
     Atom            X                  Y                   Z
    ------   -----------------  -----------------  -----------------
       1        0.004802411624    -0.001517748963    -0.000075889190
       2       -0.003111880819     0.000064361401     0.000056565709
       3       -0.000008354359    -0.000000531701     0.000001084044
       4       -0.000011650170     0.000001987214    -0.000006485210
       5       -0.000000466841    -0.000000849925     0.000001786851
       6        0.000002465819    -0.000004779536    -0.000005546330
       7       -0.002168570158     0.004750405209     0.000020643733
       8       -0.000004904545     0.000000754127    -0.000000074814
       9        0.000000809215    -0.000002317911     0.000000935477
      10        0.000004506531    -0.000001034627     0.000000891679
      11       -0.000002472039     0.000000667246     0.000001603568
      12        0.000003598185    -0.000000434001    -0.000002505314
      13        0.000501459309    -0.003273787692     0.000008392018
      14        0.000006386930    -0.000029260500    -0.000002690135
      15       -0.000002125049     0.000013616661     0.000010180188
      16        0.000004121831     0.000011009841    -0.000002895328
      17       -0.000023273006    -0.000006472008    -0.000016924109
      18        0.000000563505    -0.000001805659    -0.000001334486

  **** Optimization is complete! (in 6 steps) ****
    Final optimized geometry and variables:
    Molecular point group: c1

    Geometry (in Angstrom), charge = 1, multiplicity = 1:

    C            0.040920228033     0.007793662008    -0.173961331983
    C            0.082513643270     1.225529297566     0.520089153222
    C            0.054704870610     1.212170121283     1.913967928310
    C           -0.016754598704    -0.001924349461     2.601830552126
    C           -0.069837730789    -1.210756154164     1.902457246144
    C           -0.054937707727    -1.213822376390     0.508605514451
    C            0.012213394038     0.013151066776    -1.656806395089
    H            0.132686528379     2.166839083696    -0.019940722030
    H            0.084950818204     2.149387768230     2.460373302299
    H           -0.034887465502    -0.006201007793     3.687283216303
    H           -0.126691948520    -2.151622943487     2.440452866382
    H           -0.100096852637    -2.150125029235    -0.040429100765
    N            1.141514995211     0.189797676735    -2.324671936087
    N           -1.136467833693    -0.206145546370    -2.277340420839
    H           -1.227016340001    -0.263627822021    -3.286521245368
    H           -1.980432992488    -0.311844131767    -1.727918572631
    H            2.003803993311     0.316760273981    -1.809250820824
    H            1.193815999004     0.234637410413    -3.337218233622

  Mulliken Charges: (a.u.)
   Center  Symbol    Alpha    Beta     Spin     Total
       1     C     2.99251  2.99251  0.00000  0.01497
       2     C     3.07107  3.07107  0.00000 -0.14213
       3     C     3.06248  3.06248  0.00000 -0.12495
       4     C     3.05360  3.05360  0.00000 -0.10721
       5     C     3.06304  3.06304  0.00000 -0.12609
       6     C     3.07128  3.07128  0.00000 -0.14255
       7     C     2.74677  2.74677  0.00000  0.50646
       8     H     0.41356  0.41356  0.00000  0.17288
       9     H     0.40732  0.40732  0.00000  0.18537
      10     H     0.40668  0.40668  0.00000  0.18663
      11     H     0.40730  0.40730  0.00000  0.18541
      12     H     0.41363  0.41363  0.00000  0.17274
      13     N     3.84480  3.84480  0.00000 -0.68960
      14     N     3.84496  3.84496  0.00000 -0.68992
      15     H     0.30500  0.30500  0.00000  0.39000
      16     H     0.29556  0.29556  0.00000  0.40888
      17     H     0.29536  0.29536  0.00000  0.40927
      18     H     0.30508  0.30508  0.00000  0.38984

   Total alpha = 32.00000, Total beta = 32.00000, Total charge =  1.00000

*** Psi4 exiting successfully. Buy a developer a beer!
