                               Psi4 1.1 release

  ==> Input File <==

--------------------------------------------------------------------------
set_num_threads(1)
set_memory(4203741184)

set { reference rks }
set { basis cc-pVDZ }

molecule MOL {
    0 1
    noreorient
    nocom
    symmetry c1
    O    1.050400   0.042900  -0.048100
    C    2.474100   0.047400  -0.029000
    C    3.002600  -1.068900  -0.932000
    N    4.463734  -1.114924  -0.953625
    H    0.760400   0.728400   0.578000
    H    2.809900  -0.097900   1.003200
    H    2.817400   1.026800  -0.378600
    H    2.621740  -0.933792  -1.951034
    H    2.611809  -2.031736  -0.583742
    H    4.821779  -0.265722  -1.389677
    H    4.758852  -1.883355  -1.555846
}

set optking { frozen_dihedral = (" 1 2 3 4 ") }

energy, wfn = energy('B3LYP-D3', return_wfn=True)

import os
os.chdir(os.environ['HTMD_PSI4_WORKDIR'])

oeprop(wfn, 'DIPOLE', 'QUADRUPOLE', 'MULLIKEN_CHARGES')

with open('psi4out.xyz', 'w') as f:
    f.write('11 ' )
    f.write('%.12f\n' % energy)
    f.write(MOL.save_string_xyz())
--------------------------------------------------------------------------

    Molecular point group: c1

    Geometry (in Angstrom), charge = 0, multiplicity = 1:

       Center              X                  Y                   Z               Mass
    ------------   -----------------  -----------------  -----------------  -----------------
           O          1.050400000000     0.042900000000    -0.048100000000    15.994914619560
           C          2.474100000000     0.047400000000    -0.029000000000    12.000000000000
           C          3.002600000000    -1.068900000000    -0.932000000000    12.000000000000
           N          4.463734000000    -1.114924000000    -0.953625000000    14.003074004780
           H          0.760400000000     0.728400000000     0.578000000000     1.007825032070
           H          2.809900000000    -0.097900000000     1.003200000000     1.007825032070
           H          2.817400000000     1.026800000000    -0.378600000000     1.007825032070
           H          2.621740000000    -0.933792000000    -1.951034000000     1.007825032070
           H          2.611809000000    -2.031736000000    -0.583742000000     1.007825032070
           H          4.821779000000    -0.265722000000    -1.389677000000     1.007825032070
           H          4.758852000000    -1.883355000000    -1.555846000000     1.007825032070

  Charge       = 0
  Multiplicity = 1
  Basis Set: CC-PVDZ
    Blend: CC-PVDZ
   => B3LYP Composite Functional <=
  Basis Set: (CC-PVDZ AUX)
    Blend: CC-PVDZ-JKFIT

    Orbital Energies (a.u.)
    -----------------------

    Doubly Occupied:

       1A    -19.126947     2A    -14.304946     3A    -10.223717
       4A    -10.201769     5A     -1.009323     6A     -0.876790
       7A     -0.712100     8A     -0.597008     9A     -0.505912
      10A     -0.485249    11A     -0.455605    12A     -0.415239
      13A     -0.388360    14A     -0.363471    15A     -0.323216
      16A     -0.260602    17A     -0.231104

  @DF-RKS Final Energy:  -210.39134430902283

   => Energetics <=

    Nuclear Repulsion Energy =            130.4061199040189649
    One-Electron Energy =                -543.7502264455936256
    Two-Electron Energy =                 226.4440492437764192
    DFT Exchange-Correlation Energy =     -23.4863708812245733
    Empirical Dispersion Energy =          -0.0049161300000000
    PCM Polarization Energy =               0.0000000000000000
    EFP Energy =                            0.0000000000000000
    Total Energy =                       -210.3913443090227986

  Mulliken Charges: (a.u.)
   Center  Symbol    Alpha    Beta     Spin     Total
       1     O     4.13939  4.13939  0.00000 -0.27879
       2     C     2.92973  2.92973  0.00000  0.14055
       3     C     2.98476  2.98476  0.00000  0.03048
       4     N     3.59327  3.59327  0.00000 -0.18653
       5     H     0.42978  0.42978  0.00000  0.14044
       6     H     0.49822  0.49822  0.00000  0.00355
       7     H     0.50463  0.50463  0.00000 -0.00926
       8     H     0.50103  0.50103  0.00000 -0.00206
       9     H     0.48989  0.48989  0.00000  0.02022
      10     H     0.46596  0.46596  0.00000  0.06808
      11     H     0.46334  0.46334  0.00000  0.07332

   Total alpha = 17.00000, Total beta = 17.00000, Total charge = -0.00000

*** Psi4 exiting successfully. Buy a developer a beer!
