                               Psi4 1.1 release

  ==> Input File <==

--------------------------------------------------------------------------
set_num_threads(1)
set_memory('2004 MB')

set { scf_mem_safety_factor 0.7 }

set { reference rks }
set { basis cc-pVDZ }

molecule MOL {
    0 1
    noreorient
    nocom
    symmetry c1
    O    1.141000   0.017000   0.083000
    C    2.558000   0.086000  -0.005000
    C    3.192000  -0.789000   1.067000
    O    4.610000  -0.719000   0.979000
    H    0.789000   0.590000  -0.620000
    H    2.874000   1.128000   0.115000
    H    2.871000  -0.243000  -1.001000
    H    2.876000  -1.830000   0.947000
    H    2.879000  -0.459000   2.064000
    H    4.823011  -0.557822   0.043300
}

set optking { frozen_dihedral = (" 2 3 4 10 ") }

energy, wfn = energy('B3LYP-D3', return_wfn=True)

import os
os.chdir(os.environ['HTMD_PSI4_WORKDIR'])

oeprop(wfn, 'DIPOLE', 'QUADRUPOLE', 'MULLIKEN_CHARGES')

with open('psi4out.xyz', 'w') as f:
    f.write('10 ' )
    f.write('%.12f\n' % energy)
    f.write(MOL.save_string_xyz())
--------------------------------------------------------------------------

    Molecular point group: c1

    Geometry (in Angstrom), charge = 0, multiplicity = 1:

       Center              X                  Y                   Z               Mass
    ------------   -----------------  -----------------  -----------------  -----------------
           O          1.141000000000     0.017000000000     0.083000000000    15.994914619560
           C          2.558000000000     0.086000000000    -0.005000000000    12.000000000000
           C          3.192000000000    -0.789000000000     1.067000000000    12.000000000000
           O          4.610000000000    -0.719000000000     0.979000000000    15.994914619560
           H          0.789000000000     0.590000000000    -0.620000000000     1.007825032070
           H          2.874000000000     1.128000000000     0.115000000000     1.007825032070
           H          2.871000000000    -0.243000000000    -1.001000000000     1.007825032070
           H          2.876000000000    -1.830000000000     0.947000000000     1.007825032070
           H          2.879000000000    -0.459000000000     2.064000000000     1.007825032070
           H          4.823011000000    -0.557822000000     0.043300000000     1.007825032070

  Charge       = 0
  Multiplicity = 1
  Basis Set: CC-PVDZ
    Blend: CC-PVDZ
   => B3LYP Composite Functional <=
  Basis Set: (CC-PVDZ AUX)
    Blend: CC-PVDZ-JKFIT

    Orbital Energies (a.u.)
    -----------------------

    Doubly Occupied:

       1A    -19.138245     2A    -19.133769     3A    -10.235184
       4A    -10.226975     5A     -1.024824     6A     -1.012157
       7A     -0.733101     8A     -0.623938     9A     -0.518151
      10A     -0.492005    11A     -0.468561    12A     -0.425366
      13A     -0.398937    14A     -0.352706    15A     -0.323874
      16A     -0.271993    17A     -0.266748

  @DF-RKS Final Energy:  -230.25704076644092

   => Energetics <=

    Nuclear Repulsion Energy =            130.0730242474646161
    One-Electron Energy =                -571.7344508058896508
    Two-Electron Energy =                 235.9471945108019781
    DFT Exchange-Correlation Energy =     -24.5381661088178866
    Empirical Dispersion Energy =          -0.0046426100000000
    PCM Polarization Energy =               0.0000000000000000
    EFP Energy =                            0.0000000000000000
    Total Energy =                       -230.2570407664409231

  Mulliken Charges: (a.u.)
   Center  Symbol    Alpha    Beta     Spin     Total
       1     O     4.13734  4.13734  0.00000 -0.27467
       2     C     2.95758  2.95758  0.00000  0.08483
       3     C     2.92120  2.92120  0.00000  0.15759
       4     O     4.13758  4.13758  0.00000 -0.27516
       5     H     0.42801  0.42801  0.00000  0.14397
       6     H     0.49799  0.49799  0.00000  0.00402
       7     H     0.50414  0.50414  0.00000 -0.00828
       8     H     0.49592  0.49592  0.00000  0.00816
       9     H     0.48768  0.48768  0.00000  0.02465
      10     H     0.43256  0.43256  0.00000  0.13488

   Total alpha = 17.00000, Total beta = 17.00000, Total charge = -0.00000

*** Psi4 exiting successfully. Buy a developer a beer!
