                               Psi4 1.1 release

  ==> Input File <==

--------------------------------------------------------------------------
set_num_threads(1)
set_memory(4203741184)

set { reference rks }
set { basis cc-pVDZ }

molecule MOL {
    0 1
    noreorient
    nocom
    symmetry c1
    O    1.141000   0.017000   0.083000
    C    2.558000   0.086000  -0.005000
    C    3.192000  -0.789000   1.067000
    O    2.786537  -2.141697   0.896178
    H    0.789000   0.590000  -0.620000
    H    2.874000   1.128000   0.115000
    H    2.871000  -0.243000  -1.001000
    H    2.894569  -0.448397   2.063725
    H    4.284873  -0.733318   1.008635
    H    3.217807  -2.652745   1.603089
}

set optking { frozen_dihedral = (" 1 2 3 4 ") }

energy, wfn = energy('B3LYP-D3', return_wfn=True)

import os
os.chdir(os.environ['HTMD_PSI4_WORKDIR'])

oeprop(wfn, 'DIPOLE', 'QUADRUPOLE', 'MULLIKEN_CHARGES')

with open('psi4out.xyz', 'w') as f:
    f.write('10 ' )
    f.write('%.12f\n' % energy)
    f.write(MOL.save_string_xyz())
--------------------------------------------------------------------------

    Molecular point group: c1

    Geometry (in Angstrom), charge = 0, multiplicity = 1:

       Center              X                  Y                   Z               Mass
    ------------   -----------------  -----------------  -----------------  -----------------
           O          1.141000000000     0.017000000000     0.083000000000    15.994914619560
           C          2.558000000000     0.086000000000    -0.005000000000    12.000000000000
           C          3.192000000000    -0.789000000000     1.067000000000    12.000000000000
           O          2.786537000000    -2.141697000000     0.896178000000    15.994914619560
           H          0.789000000000     0.590000000000    -0.620000000000     1.007825032070
           H          2.874000000000     1.128000000000     0.115000000000     1.007825032070
           H          2.871000000000    -0.243000000000    -1.001000000000     1.007825032070
           H          2.894569000000    -0.448397000000     2.063725000000     1.007825032070
           H          4.284873000000    -0.733318000000     1.008635000000     1.007825032070
           H          3.217807000000    -2.652745000000     1.603089000000     1.007825032070

  Charge       = 0
  Multiplicity = 1
  Basis Set: CC-PVDZ
    Blend: CC-PVDZ
   => B3LYP Composite Functional <=
  Basis Set: (CC-PVDZ AUX)
    Blend: CC-PVDZ-JKFIT

    Orbital Energies (a.u.)
    -----------------------

    Doubly Occupied:

       1A    -19.124758     2A    -19.124697     3A    -10.227412
       4A    -10.227218     5A     -1.016450     6A     -0.998879
       7A     -0.733840     8A     -0.602017     9A     -0.520144
      10A     -0.500993    11A     -0.438738    12A     -0.416271
      13A     -0.403739    14A     -0.340265    15A     -0.318357
      16A     -0.261227    17A     -0.257271

  @DF-RKS Final Energy:  -230.25570492915233

   => Energetics <=

    Nuclear Repulsion Energy =            131.8284439520363946
    One-Electron Energy =                -575.5132897069449882
    Two-Electron Energy =                 237.9695866474416732
    DFT Exchange-Correlation Energy =     -24.5361116716854220
    Empirical Dispersion Energy =          -0.0043341500000000
    PCM Polarization Energy =               0.0000000000000000
    EFP Energy =                            0.0000000000000000
    Total Energy =                       -230.2557049291523299

  Mulliken Charges: (a.u.)
   Center  Symbol    Alpha    Beta     Spin     Total
       1     O     4.13463  4.13463  0.00000 -0.26927
       2     C     2.93251  2.93251  0.00000  0.13498
       3     C     2.93267  2.93267  0.00000  0.13467
       4     O     4.13486  4.13486  0.00000 -0.26972
       5     H     0.43067  0.43067  0.00000  0.13866
       6     H     0.50364  0.50364  0.00000 -0.00728
       7     H     0.49849  0.49849  0.00000  0.00302
       8     H     0.49838  0.49838  0.00000  0.00323
       9     H     0.50354  0.50354  0.00000 -0.00707
      10     H     0.43061  0.43061  0.00000  0.13878

   Total alpha = 17.00000, Total beta = 17.00000, Total charge = -0.00000

*** Psi4 exiting successfully. Buy a developer a beer!
