                               Psi4 1.1 release

  ==> Input File <==

--------------------------------------------------------------------------
set_num_threads(1)
set_memory(3145728000)

set { reference rks }
set { basis 6-31G* }

molecule MOL {
    1 1
    noreorient
    nocom
    symmetry c1
    C    0.000000   0.000000  -0.177864
    C    0.036678   1.219374   0.524165
    C    0.031764   1.213119   1.915444
    C   -0.000000  -0.000000   2.610107
    C   -0.031764  -1.213119   1.915444
    C   -0.036677  -1.219374   0.524165
    C    0.000000  -0.000000  -1.644734
    H    0.018170   2.164705  -0.010853
    H    0.042402   2.152895   2.457886
    H   -0.000000  -0.000000   3.695756
    H   -0.042402  -2.152895   2.457886
    H   -0.018170  -2.164705  -0.010853
    N   -0.712590  -0.905950  -2.308460
    N    0.712590   0.905950  -2.308461
    H    0.673432   1.006469  -3.315997
    H    1.377190   1.485970  -1.813317
    H   -1.722964  -0.857407  -2.300040
    H   -0.289979  -1.621096  -2.888748
}

set optking { frozen_dihedral = (" 1 7 13 17 ") }

set optking { dynamic_level = 1
 geom_maxiter = 250
 print_trajectory_xyz_file = True }

energy, wfn = optimize('B3LYP-D3', return_wfn=True)

import os
os.chdir(os.environ['HTMD_PSI4_WORKDIR'])

oeprop(wfn, 'DIPOLE', 'QUADRUPOLE', 'MULLIKEN_CHARGES')

with open('psi4out.xyz', 'w') as f:
    f.write('18 ' )
    f.write('%.12f\n' % energy)
    f.write(MOL.save_string_xyz())
--------------------------------------------------------------------------

    Molecular point group: c1
  Charge       = 1
  Multiplicity = 1
  Basis Set: 6-31G*
    Blend: 6-31G*
   => B3LYP Composite Functional <=
  Basis Set: (6-31G* AUX)
    Blend: CC-PVDZ-JKFIT
  @DF-RKS Final Energy:  -381.43913290174260
    Total Energy =                       -381.4391329017425960
    Molecular point group: c1
  Basis Set: 6-31G*
    Blend: 6-31G*
  Basis Set: (6-31G* AUX)
    Blend: CC-PVDZ-JKFIT
   => B3LYP Composite Functional <=
  Basis Set: 6-31G*
    Blend: 6-31G*
   => B3LYP Composite Functional <=
  Basis Set: (6-31G* AUX)
    Blend: CC-PVDZ-JKFIT
  @DF-RKS Final Energy:  -381.44794225050043
    Total Energy =                       -381.4479422505004322
  Basis Set: 6-31G*
    Blend: 6-31G*
  Basis Set: (6-31G* AUX)
  @DF-RKS Final Energy:  -381.45261651723655
    Total Energy =                       -381.4526165172366063
  @DF-RKS Final Energy:  -381.45498076286873
    Total Energy =                       -381.4549807628687290
  @DF-RKS Final Energy:  -381.45735971963330
    Total Energy =                       -381.4573597196332457
  @DF-RKS Final Energy:  -381.45752650610194
    Total Energy =                       -381.4575265061019991
  @DF-RKS Final Energy:  -381.45757304405407
    Total Energy =                       -381.4575730440540156
  @DF-RKS Final Energy:  -381.45757906725612
    Total Energy =                       -381.4575790672560629
  @DF-RKS Final Energy:  -381.45755647741737
    Total Energy =                       -381.4575564774173131
   => B3LYP Composite Functional <=
  Basis Set: (6-31G* AUX)
    Blend: CC-PVDZ-JKFIT
  @DF-RKS Final Energy:  -381.45757906725663
    Total Energy =                       -381.4575790672566313
  Basis Set: 6-31G*
    Blend: 6-31G*
  Basis Set: (6-31G* AUX)
    Blend: CC-PVDZ-JKFIT
   => B3LYP Composite Functional <=
  Charge       = 1
  Multiplicity = 1
  Basis Set: 6-31G*
    Blend: 6-31G*
   => B3LYP Composite Functional <=
  Basis Set: (6-31G* AUX)
    Blend: CC-PVDZ-JKFIT

    Orbital Energies (a.u.)
    -----------------------

    Doubly Occupied:

       1A    -14.577717     2A    -14.553872     3A    -10.496582
       4A    -10.372552     5A    -10.359280     6A    -10.355501
       7A    -10.347730     8A    -10.342589     9A    -10.340602
      10A     -1.181689    11A     -1.086859    12A     -1.015400
      13A     -0.928838    14A     -0.903428    15A     -0.842553
      16A     -0.778195    17A     -0.771752    18A     -0.736623
      19A     -0.725173    20A     -0.694823    21A     -0.668246
      22A     -0.626283    23A     -0.606331    24A     -0.581345
      25A     -0.580550    26A     -0.565479    27A     -0.517408
      28A     -0.507223    29A     -0.498593    30A     -0.478456
      31A     -0.414625    32A     -0.406985

  @DF-RKS Final Energy:  -381.45757919063630

   => Energetics <=

    Nuclear Repulsion Energy =            416.4195816831207253
    One-Electron Energy =               -1328.0872300397190884
    Two-Electron Energy =                 574.6172079453524475
    DFT Exchange-Correlation Energy =     -44.3954122993903511
    Empirical Dispersion Energy =          -0.0117264800000000
    PCM Polarization Energy =               0.0000000000000000
    EFP Energy =                            0.0000000000000000
    Total Energy =                       -381.4575791906362952
    Molecular point group: c1
  Basis Set: 6-31G*
    Blend: 6-31G*
  Basis Set: (6-31G* AUX)
    Blend: CC-PVDZ-JKFIT
   => B3LYP Composite Functional <=

  -Total Gradient:
     Atom            X                  Y                   Z
    ------   -----------------  -----------------  -----------------
       1        0.009307740198    -0.004606755389    -0.000001966058
       2        0.000023374452     0.000004745049     0.000008415188
       3       -0.000004249277     0.000007959938    -0.000010123254
       4       -0.000002923611     0.000000439434     0.000005260428
       5       -0.000021201333    -0.000003973794    -0.000012351026
       6        0.000040995524    -0.000007402551     0.000017461938
       7       -0.014734716242     0.009771643467    -0.004006808073
       8        0.000005357425     0.000002527003     0.000002135354
       9       -0.000002308703     0.000002129926    -0.000002792908
      10        0.000005138142     0.000000510066    -0.000001469905
      11       -0.000003944189    -0.000001862157    -0.000003043689
      12       -0.000000326677    -0.000004048013    -0.000000035677
      13        0.006871539931    -0.013153540135     0.015867476853
      14       -0.000015612873    -0.000023821183     0.000022041474
      15        0.000008476608    -0.000004904927     0.000004177324
      16        0.000011112486     0.000007663613    -0.000001825949
      17       -0.001494400398     0.008001581968    -0.011900013199
      18        0.000005849787     0.000000004049     0.000003299139

  **** Optimization is complete! (in 2 steps) ****
    Final optimized geometry and variables:
    Molecular point group: c1

    Geometry (in Angstrom), charge = 1, multiplicity = 1:

    C           -0.032338538042     0.008104485670    -0.161476834460
    C            0.067572312340     1.229304896859     0.541409916266
    C            0.095116388444     1.226633368042     1.929266194206
    C            0.015692712985     0.014328362845     2.626446752035
    C           -0.098510354406    -1.197236502843     1.936924149604
    C           -0.129611026390    -1.207973442041     0.547205647667
    C           -0.032762903657    -0.013416093941    -1.615033870138
    H            0.074156794703     2.175548930505     0.006774593242
    H            0.162241460056     2.164220197145     2.471302679538
    H            0.038956792500     0.016359965635     3.712021484508
    H           -0.153629773504    -2.132722198818     2.484010589226
    H           -0.184097094079    -2.145223165265     0.004352045312
    N           -0.556176664860    -1.089023752088    -2.272481698847
    N            0.666205846040     0.886158309011    -2.296337960836
    H            0.631593593485     0.947380934106    -3.307876795608
    H            1.296803639824     1.521042451176    -1.820312129457
    H           -1.566417710425    -1.203402694064    -2.223377782535
    H           -0.257115475014    -1.186148051935    -3.241290979724

  Mulliken Charges: (a.u.)
   Center  Symbol    Alpha    Beta     Spin     Total
       1     C     2.95082  2.95082  0.00000  0.09836
       2     C     3.08467  3.08467  0.00000 -0.16933
       3     C     3.06274  3.06274  0.00000 -0.12548
       4     C     3.04974  3.04974  0.00000 -0.09948
       5     C     3.06260  3.06260  0.00000 -0.12519
       6     C     3.07164  3.07164  0.00000 -0.14329
       7     C     2.75681  2.75681  0.00000  0.48637
       8     H     0.41548  0.41548  0.00000  0.16904
       9     H     0.40495  0.40495  0.00000  0.19010
      10     H     0.40259  0.40259  0.00000  0.19481
      11     H     0.40443  0.40443  0.00000  0.19114
      12     H     0.40418  0.40418  0.00000  0.19163
      13     N     3.85798  3.85798  0.00000 -0.71596
      14     N     3.84887  3.84887  0.00000 -0.69775
      15     H     0.30472  0.30472  0.00000  0.39056
      16     H     0.29929  0.29929  0.00000  0.40142
      17     H     0.30248  0.30248  0.00000  0.39504
      18     H     0.31600  0.31600  0.00000  0.36799

   Total alpha = 32.00000, Total beta = 32.00000, Total charge =  1.00000

*** Psi4 exiting successfully. Buy a developer a beer!
