                               Psi4 1.1 release

  ==> Input File <==

--------------------------------------------------------------------------
set {
	reference rks
	basis 6-31G*
}

set_num_threads( 8 )
memory 2 gb

molecule MOL {
1 1

C	 -0.000000	 -0.000000	 -0.191639
C	 1.158979	 -0.380770	 0.510391
C	 1.154374	 -0.374286	 1.901670
C	 -0.000000	 0.000000	 2.596333
C	 -1.154374	 0.374286	 1.901670
C	 -1.158979	 0.380771	 0.510391
C	 -0.000000	 -0.000000	 -1.658508
H	 2.070792	 -0.630949	 -0.024627
H	 2.052599	 -0.650840	 2.444112
H	 -0.000000	 0.000000	 3.681982
H	 -2.052599	 0.650839	 2.444112
H	 -2.070793	 0.630949	 -0.024627
N	 -0.712589	 -0.905950	 -2.322235
N	 0.712590	 0.905950	 -2.322235
H	 0.673432	 1.006470	 -3.329771
H	 1.377190	 1.485970	 -1.827091
H	 -1.377189	 -1.485970	 -1.827091
H	 -0.673431	 -1.006470	 -3.329771

	symmetry c1
}
set optking { dynamic_level = 1 }
set optking {
	frozen_dihedral = ("
		2 1 7 13
	")
}

ee,wfn = optimize('b3lyp-d3', return_wfn=True)
oeprop( wfn, 'DIPOLE', 'QUADRUPOLE', 'MULLIKEN_CHARGES')
f=open( 'psi4out.xyz', 'w' )
f.write( "18  " )
f.write( str(ee) + "\n" )
f.write( MOL.save_string_xyz() )
f.close()
--------------------------------------------------------------------------

    Molecular point group: c1
  Charge       = 1
  Multiplicity = 1
  Basis Set: 6-31G*
    Blend: 6-31G*
   => B3LYP Composite Functional <=
  Basis Set: (6-31G* AUX)
    Blend: CC-PVDZ-JKFIT
  @DF-RKS Final Energy:  -381.46261569267642
    Total Energy =                       -381.4626156926764793
    Molecular point group: c1
  Basis Set: 6-31G*
    Blend: 6-31G*
  Basis Set: (6-31G* AUX)
    Blend: CC-PVDZ-JKFIT
   => B3LYP Composite Functional <=
  Basis Set: 6-31G*
    Blend: 6-31G*
   => B3LYP Composite Functional <=
  Basis Set: (6-31G* AUX)
    Blend: CC-PVDZ-JKFIT
  @DF-RKS Final Energy:  -381.46544619892092
    Total Energy =                       -381.4654461989209153
  Basis Set: 6-31G*
    Blend: 6-31G*
  Basis Set: (6-31G* AUX)
  @DF-RKS Final Energy:  -381.46620566795997
    Total Energy =                       -381.4662056679600255
  @DF-RKS Final Energy:  -381.46629551974337
    Total Energy =                       -381.4662955197434258
   => B3LYP Composite Functional <=
  Basis Set: (6-31G* AUX)
    Blend: CC-PVDZ-JKFIT
  @DF-RKS Final Energy:  -381.46630349646296
    Total Energy =                       -381.4663034964629560
  Basis Set: 6-31G*
    Blend: 6-31G*
  Basis Set: (6-31G* AUX)
    Blend: CC-PVDZ-JKFIT
   => B3LYP Composite Functional <=
  Charge       = 1
  Multiplicity = 1
  Basis Set: 6-31G*
    Blend: 6-31G*
   => B3LYP Composite Functional <=
  Basis Set: (6-31G* AUX)
    Blend: CC-PVDZ-JKFIT

    Orbital Energies (a.u.)
    -----------------------

    Doubly Occupied:

       1A    -14.574006     2A    -14.573996     3A    -10.501114
       4A    -10.369235     5A    -10.351000     6A    -10.350337
       7A    -10.335912     8A    -10.335372     9A    -10.335099
      10A     -1.188617    11A     -1.097666    12A     -1.010227
      13A     -0.923172    14A     -0.896872    15A     -0.845158
      16A     -0.787377    17A     -0.767651    18A     -0.751710
      19A     -0.728968    20A     -0.690584    21A     -0.667594
      22A     -0.622523    23A     -0.617996    24A     -0.579103
      25A     -0.574550    26A     -0.568638    27A     -0.516531
      28A     -0.498773    29A     -0.493205    30A     -0.477962
      31A     -0.406555    32A     -0.400225

  @DF-RKS Final Energy:  -381.46630518425610

   => Energetics <=

    Nuclear Repulsion Energy =            416.5342691833702133
    One-Electron Energy =               -1328.3790725537378421
    Two-Electron Energy =                 574.7947610848975728
    DFT Exchange-Correlation Energy =     -44.4044547587860734
    Empirical Dispersion Energy =          -0.0118081400000000
    PCM Polarization Energy =               0.0000000000000000
    EFP Energy =                            0.0000000000000000
    Total Energy =                       -381.4663051842561003
    Molecular point group: c1
  Basis Set: 6-31G*
    Blend: 6-31G*
  Basis Set: (6-31G* AUX)
    Blend: CC-PVDZ-JKFIT
   => B3LYP Composite Functional <=

  -Total Gradient:
     Atom            X                  Y                   Z
    ------   -----------------  -----------------  -----------------
       1        0.003939431286     0.004982443667    -0.000117167834
       2       -0.001572738980    -0.004416432077     0.000093285108
       3        0.000015340372     0.000035531371     0.000005903973
       4        0.000002526189    -0.000010697588    -0.000008703543
       5       -0.000019373933    -0.000027622344    -0.000000572939
       6        0.000011363737     0.000068431041    -0.000031639600
       7       -0.006169794194     0.002477179075    -0.000053942787
       8        0.000006365650     0.000019191484     0.000006341254
       9        0.000000096201    -0.000000626328    -0.000000253552
      10        0.000002145255     0.000000583960     0.000002217742
      11        0.000002036258     0.000002195063     0.000001370496
      12       -0.000006788130    -0.000016389158     0.000003005469
      13        0.003791849807    -0.003080924505     0.000082307516
      14       -0.000021473908     0.000014184434     0.000046335307
      15        0.000017226389    -0.000006750250     0.000007644179
      16        0.000016677889    -0.000004671645    -0.000023146159
      17       -0.000007092944    -0.000020776278    -0.000004619485
      18       -0.000002961079    -0.000000367954    -0.000002274436

  **** Optimization is complete! (in 6 steps) ****
    Final optimized geometry and variables:
    Molecular point group: c1

    Geometry (in Angstrom), charge = 1, multiplicity = 1:

    C            0.004850480727     0.064143381615    -0.186764336398
    C            1.167564751072    -0.325410981054     0.496399707777
    C            1.152767558819    -0.372343181802     1.889089145189
    C           -0.009331636162    -0.037560421323     2.589535944164
    C           -1.169143459351     0.333856103018     1.903189789702
    C           -1.174800974220     0.368786533288     0.510350158522
    C           -0.007396368352     0.025122427046    -1.664307071763
    H            2.064439712969    -0.595674223271    -0.053769765126
    H            2.045772568442    -0.676704219790     2.425499678931
    H           -0.012992848317    -0.071631399680     3.674627635396
    H           -2.069368319580     0.592592083335     2.451314806749
    H           -2.073577881368     0.654962893832    -0.028811210437
    N           -0.747444319374    -0.885947966381    -2.279705893329
    N            0.777582093938     0.851250571871    -2.340848057727
    H            0.884992590112     0.821731490888    -3.349208389207
    H            1.289168541466     1.567245372394    -1.840193253095
    H           -1.280777564414    -1.544422885150    -1.725599519674
    H           -0.843832442985    -0.939854764788    -3.288249456885

  Mulliken Charges: (a.u.)
   Center  Symbol    Alpha    Beta     Spin     Total
       1     C     2.98551  2.98551  0.00000  0.02898
       2     C     3.07113  3.07113  0.00000 -0.14227
       3     C     3.06231  3.06231  0.00000 -0.12463
       4     C     3.05303  3.05303  0.00000 -0.10606
       5     C     3.06305  3.06305  0.00000 -0.12610
       6     C     3.07564  3.07564  0.00000 -0.15129
       7     C     2.74206  2.74206  0.00000  0.51588
       8     H     0.41332  0.41332  0.00000  0.17337
       9     H     0.40678  0.40678  0.00000  0.18645
      10     H     0.40596  0.40596  0.00000  0.18808
      11     H     0.40681  0.40681  0.00000  0.18639
      12     H     0.41356  0.41356  0.00000  0.17288
      13     N     3.84776  3.84776  0.00000 -0.69552
      14     N     3.84962  3.84962  0.00000 -0.69924
      15     H     0.30529  0.30529  0.00000  0.38942
      16     H     0.29638  0.29638  0.00000  0.40723
      17     H     0.29650  0.29650  0.00000  0.40699
      18     H     0.30528  0.30528  0.00000  0.38944

   Total alpha = 32.00000, Total beta = 32.00000, Total charge =  1.00000

*** Psi4 exiting successfully. Buy a developer a beer!
