                               Psi4 1.1 release

  ==> Input File <==

--------------------------------------------------------------------------
set_num_threads(1)
set_memory(4203741184)

set { reference rks }
set { basis cc-pVDZ }

molecule MOL {
    0 1
    noreorient
    nocom
    symmetry c1
    O    1.141000   0.017000   0.083000
    C    2.558000   0.086000  -0.005000
    C    3.192000  -0.789000   1.067000
    O    4.610000  -0.719000   0.979000
    H    0.789000   0.590000  -0.620000
    H    2.874000   1.128000   0.115000
    H    2.871000  -0.243000  -1.001000
    H    2.876000  -1.830000   0.947000
    H    2.879000  -0.459000   2.064000
    H    4.951583  -0.853007   1.880249
}

set optking { frozen_dihedral = (" 2 3 4 10 ") }

energy, wfn = energy('B3LYP-D3', return_wfn=True)

import os
os.chdir(os.environ['HTMD_PSI4_WORKDIR'])

oeprop(wfn, 'DIPOLE', 'QUADRUPOLE', 'MULLIKEN_CHARGES')

with open('psi4out.xyz', 'w') as f:
    f.write('10 ' )
    f.write('%.12f\n' % energy)
    f.write(MOL.save_string_xyz())
--------------------------------------------------------------------------

    Molecular point group: c1

    Geometry (in Angstrom), charge = 0, multiplicity = 1:

       Center              X                  Y                   Z               Mass
    ------------   -----------------  -----------------  -----------------  -----------------
           O          1.141000000000     0.017000000000     0.083000000000    15.994914619560
           C          2.558000000000     0.086000000000    -0.005000000000    12.000000000000
           C          3.192000000000    -0.789000000000     1.067000000000    12.000000000000
           O          4.610000000000    -0.719000000000     0.979000000000    15.994914619560
           H          0.789000000000     0.590000000000    -0.620000000000     1.007825032070
           H          2.874000000000     1.128000000000     0.115000000000     1.007825032070
           H          2.871000000000    -0.243000000000    -1.001000000000     1.007825032070
           H          2.876000000000    -1.830000000000     0.947000000000     1.007825032070
           H          2.879000000000    -0.459000000000     2.064000000000     1.007825032070
           H          4.951583000000    -0.853007000000     1.880249000000     1.007825032070

  Charge       = 0
  Multiplicity = 1
  Basis Set: CC-PVDZ
    Blend: CC-PVDZ
   => B3LYP Composite Functional <=
  Basis Set: (CC-PVDZ AUX)
    Blend: CC-PVDZ-JKFIT

    Orbital Energies (a.u.)
    -----------------------

    Doubly Occupied:

       1A    -19.132079     2A    -19.131157     3A    -10.226432
       4A    -10.225249     5A     -1.018899     6A     -1.008576
       7A     -0.731846     8A     -0.604293     9A     -0.526042
      10A     -0.485549    11A     -0.466874    12A     -0.414563
      13A     -0.395316    14A     -0.347040    15A     -0.320101
      16A     -0.265228    17A     -0.263407

  @DF-RKS Final Energy:  -230.25692228754534

   => Energetics <=

    Nuclear Repulsion Energy =            129.4734714008015715
    One-Electron Energy =                -570.7026099102957915
    Two-Electron Energy =                 235.5156294621708071
    DFT Exchange-Correlation Energy =     -24.5389999802219592
    Empirical Dispersion Energy =          -0.0044132600000000
    PCM Polarization Energy =               0.0000000000000000
    EFP Energy =                            0.0000000000000000
    Total Energy =                       -230.2569222875453363

  Mulliken Charges: (a.u.)
   Center  Symbol    Alpha    Beta     Spin     Total
       1     O     4.14066  4.14066  0.00000 -0.28132
       2     C     2.93584  2.93584  0.00000  0.12831
       3     C     2.93699  2.93699  0.00000  0.12603
       4     O     4.14050  4.14050  0.00000 -0.28100
       5     H     0.42753  0.42753  0.00000  0.14493
       6     H     0.50029  0.50029  0.00000 -0.00058
       7     H     0.49743  0.49743  0.00000  0.00515
       8     H     0.49587  0.49587  0.00000  0.00826
       9     H     0.49797  0.49797  0.00000  0.00406
      10     H     0.42692  0.42692  0.00000  0.14615

   Total alpha = 17.00000, Total beta = 17.00000, Total charge =  0.00000

*** Psi4 exiting successfully. Buy a developer a beer!
