                               Psi4 1.1 release

  ==> Input File <==

--------------------------------------------------------------------------
set_num_threads(1)
set_memory('2004 MB')

set { scf_mem_safety_factor 0.7 }

set { reference rks }
set { basis cc-pVDZ }

molecule MOL {
    0 1
    noreorient
    nocom
    symmetry c1
    O    1.141000   0.017000   0.083000
    C    2.558000   0.086000  -0.005000
    C    3.192000  -0.789000   1.067000
    O    4.610000  -0.719000   0.979000
    H    0.789000   0.590000  -0.620000
    H    2.874000   1.128000   0.115000
    H    2.871000  -0.243000  -1.001000
    H    2.876000  -1.830000   0.947000
    H    2.879000  -0.459000   2.064000
    H    4.943178  -1.619891   1.134800
}

set optking { frozen_dihedral = (" 2 3 4 10 ") }

energy, wfn = energy('B3LYP-D3', return_wfn=True)

import os
os.chdir(os.environ['HTMD_PSI4_WORKDIR'])

oeprop(wfn, 'DIPOLE', 'QUADRUPOLE', 'MULLIKEN_CHARGES')

with open('psi4out.xyz', 'w') as f:
    f.write('10 ' )
    f.write('%.12f\n' % energy)
    f.write(MOL.save_string_xyz())
--------------------------------------------------------------------------

    Molecular point group: c1

    Geometry (in Angstrom), charge = 0, multiplicity = 1:

       Center              X                  Y                   Z               Mass
    ------------   -----------------  -----------------  -----------------  -----------------
           O          1.141000000000     0.017000000000     0.083000000000    15.994914619560
           C          2.558000000000     0.086000000000    -0.005000000000    12.000000000000
           C          3.192000000000    -0.789000000000     1.067000000000    12.000000000000
           O          4.610000000000    -0.719000000000     0.979000000000    15.994914619560
           H          0.789000000000     0.590000000000    -0.620000000000     1.007825032070
           H          2.874000000000     1.128000000000     0.115000000000     1.007825032070
           H          2.871000000000    -0.243000000000    -1.001000000000     1.007825032070
           H          2.876000000000    -1.830000000000     0.947000000000     1.007825032070
           H          2.879000000000    -0.459000000000     2.064000000000     1.007825032070
           H          4.943178000000    -1.619891000000     1.134800000000     1.007825032070

  Charge       = 0
  Multiplicity = 1
  Basis Set: CC-PVDZ
    Blend: CC-PVDZ
   => B3LYP Composite Functional <=
  Basis Set: (CC-PVDZ AUX)
    Blend: CC-PVDZ-JKFIT

    Orbital Energies (a.u.)
    -----------------------

    Doubly Occupied:

       1A    -19.132430     2A    -19.130871     3A    -10.226507
       4A    -10.224661     5A     -1.018998     6A     -1.008579
       7A     -0.731532     8A     -0.604846     9A     -0.526044
      10A     -0.487918    11A     -0.463255    12A     -0.416239
      13A     -0.395404    14A     -0.344961    15A     -0.321020
      16A     -0.266036    17A     -0.263279

  @DF-RKS Final Energy:  -230.25678058607838

   => Energetics <=

    Nuclear Repulsion Energy =            129.4980460010936838
    One-Electron Energy =                -570.7515244274181896
    Two-Electron Energy =                 235.5402231818961525
    DFT Exchange-Correlation Energy =     -24.5391063716500781
    Empirical Dispersion Energy =          -0.0044189700000000
    PCM Polarization Energy =               0.0000000000000000
    EFP Energy =                            0.0000000000000000
    Total Energy =                       -230.2567805860784063

  Mulliken Charges: (a.u.)
   Center  Symbol    Alpha    Beta     Spin     Total
       1     O     4.14080  4.14080  0.00000 -0.28160
       2     C     2.93558  2.93558  0.00000  0.12883
       3     C     2.93735  2.93735  0.00000  0.12530
       4     O     4.14034  4.14034  0.00000 -0.28067
       5     H     0.42768  0.42768  0.00000  0.14464
       6     H     0.49745  0.49745  0.00000  0.00510
       7     H     0.50149  0.50149  0.00000 -0.00297
       8     H     0.49781  0.49781  0.00000  0.00439
       9     H     0.49460  0.49460  0.00000  0.01079
      10     H     0.42690  0.42690  0.00000  0.14620

   Total alpha = 17.00000, Total beta = 17.00000, Total charge = -0.00000

*** Psi4 exiting successfully. Buy a developer a beer!
