                               Psi4 1.1 release

  ==> Input File <==

--------------------------------------------------------------------------
set_num_threads(1)
set_memory(3145728000)

set { reference rks }
set { basis 6-31G* }

molecule MOL {
    1 1
    noreorient
    nocom
    symmetry c1
    C    0.000000   0.000000  -0.177864
    C    0.036678   1.219374   0.524165
    C    0.031764   1.213119   1.915444
    C   -0.000000  -0.000000   2.610107
    C   -0.031764  -1.213119   1.915444
    C   -0.036677  -1.219374   0.524165
    C    0.000000  -0.000000  -1.644734
    H    0.018170   2.164705  -0.010853
    H    0.042402   2.152895   2.457886
    H   -0.000000  -0.000000   3.695756
    H   -0.042402  -2.152895   2.457886
    H   -0.018170  -2.164705  -0.010853
    N   -0.712590  -0.905950  -2.308460
    N    0.712590   0.905950  -2.308461
    H    0.673432   1.006469  -3.315997
    H    1.377190   1.485970  -1.813317
    H   -1.671993  -0.707051  -2.559991
    H   -0.320118  -1.779032  -2.640817
}

set optking { frozen_dihedral = (" 1 7 13 17 ") }

set optking { dynamic_level = 1
 geom_maxiter = 250
 print_trajectory_xyz_file = True }

energy, wfn = optimize('B3LYP-D3', return_wfn=True)

import os
os.chdir(os.environ['HTMD_PSI4_WORKDIR'])

oeprop(wfn, 'DIPOLE', 'QUADRUPOLE', 'MULLIKEN_CHARGES')

with open('psi4out.xyz', 'w') as f:
    f.write('18 ' )
    f.write('%.12f\n' % energy)
    f.write(MOL.save_string_xyz())
--------------------------------------------------------------------------

    Molecular point group: c1
  Charge       = 1
  Multiplicity = 1
  Basis Set: 6-31G*
    Blend: 6-31G*
   => B3LYP Composite Functional <=
  Basis Set: (6-31G* AUX)
    Blend: CC-PVDZ-JKFIT
  @DF-RKS Final Energy:  -381.42617742147098
    Total Energy =                       -381.4261774214709817
    Molecular point group: c1
  Basis Set: 6-31G*
    Blend: 6-31G*
  Basis Set: (6-31G* AUX)
    Blend: CC-PVDZ-JKFIT
   => B3LYP Composite Functional <=
  Basis Set: 6-31G*
    Blend: 6-31G*
   => B3LYP Composite Functional <=
  Basis Set: (6-31G* AUX)
    Blend: CC-PVDZ-JKFIT
  @DF-RKS Final Energy:  -381.43328205632241
    Total Energy =                       -381.4332820563224118
  Basis Set: 6-31G*
    Blend: 6-31G*
  Basis Set: (6-31G* AUX)
  @DF-RKS Final Energy:  -381.43732385363955
    Total Energy =                       -381.4373238536394979
  @DF-RKS Final Energy:  -381.44080387508620
    Total Energy =                       -381.4408038750862602
  @DF-RKS Final Energy:  -381.44326179092246
    Total Energy =                       -381.4432617909224632
  @DF-RKS Final Energy:  -381.44728058724399
    Total Energy =                       -381.4472805872439380
  @DF-RKS Final Energy:  -381.44795720677547
    Total Energy =                       -381.4479572067755271
  @DF-RKS Final Energy:  -381.44812459714564
    Total Energy =                       -381.4481245971456929
   => B3LYP Composite Functional <=
  Basis Set: (6-31G* AUX)
    Blend: CC-PVDZ-JKFIT
  @DF-RKS Final Energy:  -381.44814480650211
    Total Energy =                       -381.4481448065020572
  Basis Set: 6-31G*
    Blend: 6-31G*
  Basis Set: (6-31G* AUX)
    Blend: CC-PVDZ-JKFIT
   => B3LYP Composite Functional <=
  Charge       = 1
  Multiplicity = 1
  Basis Set: 6-31G*
    Blend: 6-31G*
   => B3LYP Composite Functional <=
  Basis Set: (6-31G* AUX)
    Blend: CC-PVDZ-JKFIT

    Orbital Energies (a.u.)
    -----------------------

    Doubly Occupied:

       1A    -14.581794     2A    -14.542788     3A    -10.496837
       4A    -10.373751     5A    -10.361965     6A    -10.356805
       7A    -10.351203     8A    -10.344851     9A    -10.341860
      10A     -1.179872    11A     -1.081469    12A     -1.016955
      13A     -0.930579    14A     -0.905236    15A     -0.842228
      16A     -0.775732    17A     -0.772071    18A     -0.736843
      19A     -0.719614    20A     -0.693440    21A     -0.667416
      22A     -0.627747    23A     -0.604938    24A     -0.582317
      25A     -0.580651    26A     -0.561402    27A     -0.517294
      28A     -0.509318    29A     -0.499966    30A     -0.473899
      31A     -0.416952    32A     -0.408744

  @DF-RKS Final Energy:  -381.44814553583080

   => Energetics <=

    Nuclear Repulsion Energy =            416.0252041382626658
    One-Electron Energy =               -1327.2969030553158518
    Two-Electron Energy =                 574.2251117991506817
    DFT Exchange-Correlation Energy =     -44.3899379279283295
    Empirical Dispersion Energy =          -0.0116204900000000
    PCM Polarization Energy =               0.0000000000000000
    EFP Energy =                            0.0000000000000000
    Total Energy =                       -381.4481455358308040
    Molecular point group: c1
  Basis Set: 6-31G*
    Blend: 6-31G*
  Basis Set: (6-31G* AUX)
    Blend: CC-PVDZ-JKFIT
   => B3LYP Composite Functional <=

  -Total Gradient:
     Atom            X                  Y                   Z
    ------   -----------------  -----------------  -----------------
       1        0.010646233224    -0.004766875643    -0.000024694047
       2        0.000013502463     0.000014980399     0.000019537123
       3        0.000002421284     0.000013588983    -0.000005233186
       4       -0.000001282271    -0.000004193251     0.000017606051
       5       -0.000030732992     0.000010309837    -0.000018342273
       6        0.000049281209     0.000011371374     0.000045069648
       7       -0.015021153102     0.009295946843    -0.004461829931
       8        0.000003447318    -0.000000527623     0.000007112165
       9       -0.000003155455     0.000001524047    -0.000002429475
      10       -0.000000393439     0.000004090991    -0.000004706078
      11        0.000002401058    -0.000011205695    -0.000012006092
      12       -0.000009449176    -0.000016478958    -0.000009687737
      13        0.001297732080    -0.011550870917     0.018588398173
      14       -0.000102898643     0.000032633379    -0.000004928662
      15        0.000002368919     0.000006681090    -0.000019221953
      16        0.000019482468     0.000011595182     0.000002894954
      17        0.003144724024     0.006934059671    -0.014167414026
      18        0.000003912001     0.000008126249     0.000029656966

  **** Optimization is complete! (in 10 steps) ****
    Final optimized geometry and variables:
    Molecular point group: c1

    Geometry (in Angstrom), charge = 1, multiplicity = 1:

    C           -0.043377944224     0.011278165049    -0.153176421970
    C            0.102874523568     1.229399738674     0.552618749258
    C            0.142258245079     1.224542333861     1.938436552183
    C            0.025235229995     0.013700666557     2.635875015682
    C           -0.140735767243    -1.192381711163     1.947578879889
    C           -0.183276056904    -1.201193332139     0.558618986408
    C           -0.049631270668    -0.018185702264    -1.600474667473
    H            0.134112781091     2.177367487378     0.021782877618
    H            0.245535435846     2.158285518040     2.481358623713
    H            0.057043289426     0.014839306675     3.721296268517
    H           -0.228988928771    -2.124965628413     2.495187563908
    H           -0.283397568144    -2.132164828406     0.012635086795
    N           -0.541875247872    -1.134719772366    -2.255646576366
    N            0.623827023198     0.889124950336    -2.294564637502
    H            0.581642183719     0.929988338839    -3.307141483055
    H            1.224053585258     1.565133944879    -1.834261657519
    H           -1.540147829750    -1.111113309825    -2.465393875267
    H           -0.066639683607    -1.292580165709    -3.145223284818

  Mulliken Charges: (a.u.)
   Center  Symbol    Alpha    Beta     Spin     Total
       1     C     2.94533  2.94533  0.00000  0.10934
       2     C     3.08445  3.08445  0.00000 -0.16890
       3     C     3.06261  3.06261  0.00000 -0.12521
       4     C     3.04872  3.04872  0.00000 -0.09744
       5     C     3.06246  3.06246  0.00000 -0.12492
       6     C     3.06839  3.06839  0.00000 -0.13678
       7     C     2.77126  2.77126  0.00000  0.45749
       8     H     0.41607  0.41607  0.00000  0.16786
       9     H     0.40434  0.40434  0.00000  0.19132
      10     H     0.40162  0.40162  0.00000  0.19676
      11     H     0.40365  0.40365  0.00000  0.19270
      12     H     0.39982  0.39982  0.00000  0.20036
      13     N     3.86070  3.86070  0.00000 -0.72140
      14     N     3.84275  3.84275  0.00000 -0.68550
      15     H     0.30413  0.30413  0.00000  0.39173
      16     H     0.29957  0.29957  0.00000  0.40085
      17     H     0.30469  0.30469  0.00000  0.39061
      18     H     0.31944  0.31944  0.00000  0.36112

   Total alpha = 32.00000, Total beta = 32.00000, Total charge =  1.00000

*** Psi4 exiting successfully. Buy a developer a beer!
