                               Psi4 1.1 release

  ==> Input File <==

--------------------------------------------------------------------------
set_num_threads( 8 )
memory 2.000000 gb

set { reference rks }
set { basis cc-pVDZ }

molecule MOL {
    0 1
    noreorient
    nocom
    symmetry c1
    O    1.141000   0.017000   0.083000
    C    2.558000   0.086000  -0.005000
    C    3.192000  -0.789000   1.067000
    O    4.177586  -0.051377   1.779672
    H    0.789000   0.590000  -0.620000
    H    2.874000   1.128000   0.115000
    H    2.871000  -0.243000  -1.001000
    H    3.659817  -1.669098   0.614770
    H    2.430643  -1.141934   1.771735
    H    4.547805  -0.654727   2.447349
}

set optking { frozen_dihedral = (" 1 2 3 4, 2 3 4 10 ") }

energy, wfn = energy('B3LYP-D3', return_wfn=True)

import os
os.chdir(os.environ['HTMD_PSI4_WORKDIR'])

oeprop(wfn, 'DIPOLE', 'QUADRUPOLE', 'MULLIKEN_CHARGES')

with open('psi4out.xyz', 'w') as f:
    f.write('10 ' )
    f.write('%.12f\n' % energy)
    f.write(MOL.save_string_xyz())
--------------------------------------------------------------------------

    Molecular point group: c1

    Geometry (in Angstrom), charge = 0, multiplicity = 1:

       Center              X                  Y                   Z               Mass
    ------------   -----------------  -----------------  -----------------  -----------------
           O          1.141000000000     0.017000000000     0.083000000000    15.994914619560
           C          2.558000000000     0.086000000000    -0.005000000000    12.000000000000
           C          3.192000000000    -0.789000000000     1.067000000000    12.000000000000
           O          4.177586000000    -0.051377000000     1.779672000000    15.994914619560
           H          0.789000000000     0.590000000000    -0.620000000000     1.007825032070
           H          2.874000000000     1.128000000000     0.115000000000     1.007825032070
           H          2.871000000000    -0.243000000000    -1.001000000000     1.007825032070
           H          3.659817000000    -1.669098000000     0.614770000000     1.007825032070
           H          2.430643000000    -1.141934000000     1.771735000000     1.007825032070
           H          4.547805000000    -0.654727000000     2.447349000000     1.007825032070

  Charge       = 0
  Multiplicity = 1
  Basis Set: CC-PVDZ
    Blend: CC-PVDZ
   => B3LYP Composite Functional <=
  Basis Set: (CC-PVDZ AUX)
    Blend: CC-PVDZ-JKFIT

    Orbital Energies (a.u.)
    -----------------------

    Doubly Occupied:

       1A    -19.129259     2A    -19.129229     3A    -10.225290
       4A    -10.225099     5A     -1.017646     6A     -1.005994
       7A     -0.732583     8A     -0.603243     9A     -0.522435
      10A     -0.501423    11A     -0.444260    12A     -0.411187
      13A     -0.403668    14A     -0.347386    15A     -0.320189
      16A     -0.265529    17A     -0.257443

  @DF-RKS Final Energy:  -230.25339705941900

   => Energetics <=

    Nuclear Repulsion Energy =            129.9126222378303339
    One-Electron Energy =                -571.6139547602463153
    Two-Electron Energy =                 235.9939357729741118
    DFT Exchange-Correlation Energy =     -24.5417454499770962
    Empirical Dispersion Energy =          -0.0042548600000000
    PCM Polarization Energy =               0.0000000000000000
    EFP Energy =                            0.0000000000000000
    Total Energy =                       -230.2533970594190009

  Mulliken Charges: (a.u.)
   Center  Symbol    Alpha    Beta     Spin     Total
       1     O     4.14042  4.14042  0.00000 -0.28085
       2     C     2.93379  2.93379  0.00000  0.13242
       3     C     2.93399  2.93399  0.00000  0.13203
       4     O     4.14065  4.14065  0.00000 -0.28131
       5     H     0.42987  0.42987  0.00000  0.14026
       6     H     0.49444  0.49444  0.00000  0.01111
       7     H     0.50141  0.50141  0.00000 -0.00281
       8     H     0.50126  0.50126  0.00000 -0.00252
       9     H     0.49435  0.49435  0.00000  0.01131
      10     H     0.42982  0.42982  0.00000  0.14036

   Total alpha = 17.00000, Total beta = 17.00000, Total charge =  0.00000

*** Psi4 exiting successfully. Buy a developer a beer!
