                               Psi4 1.1 release

  ==> Input File <==

--------------------------------------------------------------------------
set {
	reference rks
	basis 6-31G*
}

set_num_threads( 8 )
memory 2 gb

molecule MOL {
1 1

C	 1.187395	 -0.413007	 -0.902716
C	 1.493728	 0.212525	 0.320368
C	 2.618728	 -0.186740	 1.034989
C	 3.444192	 -1.197981	 0.533764
C	 3.145029	 -1.818047	 -0.683300
C	 2.017615	 -1.433863	 -1.402369
C	 -0.000000	 -0.000000	 -1.658508
H	 0.832231	 0.968390	 0.734284
H	 2.846425	 0.282591	 1.986523
H	 4.322998	 -1.503653	 1.093136
H	 3.795520	 -2.592834	 -1.075856
H	 1.812944	 -1.888452	 -2.367613
N	 -0.712589	 -0.905950	 -2.322235
N	 -0.361953	 1.279705	 -1.678742
H	 -1.221891	 1.601626	 -2.107273
H	 0.263576	 1.986274	 -1.314383
H	 -1.377189	 -1.485970	 -1.827091
H	 -0.673431	 -1.006470	 -3.329771

	symmetry c1
}
set optking { dynamic_level = 1 }
set optking {
	frozen_dihedral = ("
		1 7 13 17
	")
}

ee,wfn = optimize('b3lyp-d3', return_wfn=True)
oeprop( wfn, 'DIPOLE', 'QUADRUPOLE', 'MULLIKEN_CHARGES')
f=open( 'psi4out.xyz', 'w' )
f.write( "18  " )
f.write( str(ee) + "\n" )
f.write( MOL.save_string_xyz() )
f.close()
--------------------------------------------------------------------------

    Molecular point group: c1
  Charge       = 1
  Multiplicity = 1
  Basis Set: 6-31G*
    Blend: 6-31G*
   => B3LYP Composite Functional <=
  Basis Set: (6-31G* AUX)
    Blend: CC-PVDZ-JKFIT
  @DF-RKS Final Energy:  -381.43158078879577
    Total Energy =                       -381.4315807887958272
    Molecular point group: c1
  Basis Set: 6-31G*
    Blend: 6-31G*
  Basis Set: (6-31G* AUX)
    Blend: CC-PVDZ-JKFIT
   => B3LYP Composite Functional <=
  Basis Set: 6-31G*
    Blend: 6-31G*
   => B3LYP Composite Functional <=
  Basis Set: (6-31G* AUX)
    Blend: CC-PVDZ-JKFIT
  @DF-RKS Final Energy:  -381.44037047974246
    Total Energy =                       -381.4403704797425121
  Basis Set: 6-31G*
    Blend: 6-31G*
  Basis Set: (6-31G* AUX)
  @DF-RKS Final Energy:  -381.44548067864309
    Total Energy =                       -381.4454806786431504
  @DF-RKS Final Energy:  -381.44586261746002
    Total Energy =                       -381.4458626174600226
  @DF-RKS Final Energy:  -381.45195534095711
    Total Energy =                       -381.4519553409570563
  @DF-RKS Final Energy:  -381.45280844816017
    Total Energy =                       -381.4528084481602264
  @DF-RKS Final Energy:  -381.45298375018581
    Total Energy =                       -381.4529837501858083
  @DF-RKS Final Energy:  -381.45300209524544
    Total Energy =                       -381.4530020952454379
  @DF-RKS Final Energy:  -381.45300446891008
    Total Energy =                       -381.4530044689100805
  @DF-RKS Final Energy:  -381.45215353547155
    Total Energy =                       -381.4521535354715525
  @DF-RKS Final Energy:  -381.45300446955389
    Total Energy =                       -381.4530044695538322
  @DF-RKS Final Energy:  -381.45300555906391
    Total Energy =                       -381.4530055590639677
   => B3LYP Composite Functional <=
  Basis Set: (6-31G* AUX)
    Blend: CC-PVDZ-JKFIT
  @DF-RKS Final Energy:  -381.45300513015377
    Total Energy =                       -381.4530051301538265
  Basis Set: 6-31G*
    Blend: 6-31G*
  Basis Set: (6-31G* AUX)
    Blend: CC-PVDZ-JKFIT
   => B3LYP Composite Functional <=
  Charge       = 1
  Multiplicity = 1
  Basis Set: 6-31G*
    Blend: 6-31G*
   => B3LYP Composite Functional <=
  Basis Set: (6-31G* AUX)
    Blend: CC-PVDZ-JKFIT

    Orbital Energies (a.u.)
    -----------------------

    Doubly Occupied:

       1A    -14.579705     2A    -14.548951     3A    -10.496643
       4A    -10.373021     5A    -10.360430     6A    -10.355989
       7A    -10.349266     8A    -10.343555     9A    -10.341099
      10A     -1.180795    11A     -1.084439    12A     -1.016038
      13A     -0.929601    14A     -0.904176    15A     -0.842334
      16A     -0.776845    17A     -0.771739    18A     -0.736587
      19A     -0.722467    20A     -0.694465    21A     -0.667912
      22A     -0.626893    23A     -0.605415    24A     -0.581463
      25A     -0.580622    26A     -0.563224    27A     -0.517242
      28A     -0.508113    29A     -0.499146    30A     -0.477065
      31A     -0.415609    32A     -0.407714

  @DF-RKS Final Energy:  -381.45300582169295

   => Energetics <=

    Nuclear Repulsion Energy =            416.2346959925581587
    One-Electron Energy =               -1327.7197454713286788
    Two-Electron Energy =                 574.4362863716416996
    DFT Exchange-Correlation Energy =     -44.3925779345641871
    Empirical Dispersion Energy =          -0.0116647800000000
    PCM Polarization Energy =               0.0000000000000000
    EFP Energy =                            0.0000000000000000
    Total Energy =                       -381.4530058216930115
    Molecular point group: c1
  Basis Set: 6-31G*
    Blend: 6-31G*
  Basis Set: (6-31G* AUX)
    Blend: CC-PVDZ-JKFIT
   => B3LYP Composite Functional <=

  -Total Gradient:
     Atom            X                  Y                   Z
    ------   -----------------  -----------------  -----------------
       1        0.006704341186     0.004237032593    -0.008419954798
       2        0.000049147352     0.000020707045     0.000015768385
       3       -0.000028027901     0.000015488060     0.000001723143
       4        0.000000980866    -0.000006774916    -0.000012521211
       5       -0.000008573864    -0.000021477761     0.000004898877
       6        0.000026974332    -0.000019989466    -0.000007322395
       7       -0.014495975780    -0.003221657745     0.012471906155
       8        0.000013697513    -0.000002285802     0.000004307938
       9       -0.000002353064    -0.000002300423     0.000001531019
      10       -0.000000102376     0.000000620464    -0.000000709656
      11        0.000000429931     0.000000117235     0.000001225094
      12        0.000000376271     0.000008743265    -0.000001102479
      13        0.020146464751    -0.010316927301    -0.002193219248
      14        0.000136187106    -0.000032389091    -0.000045438323
      15        0.000011774342     0.000002282822    -0.000020703190
      16        0.000004147605     0.000020938129    -0.000015320764
      17       -0.012525467528     0.009401827048    -0.001750997719
      18       -0.000047030919    -0.000082886971    -0.000051035560

  **** Optimization is complete! (in 3 steps) ****
    Final optimized geometry and variables:
    Molecular point group: c1

    Geometry (in Angstrom), charge = 1, multiplicity = 1:

    C           -0.183441440673     0.045562082173    -0.060855784916
    C            0.169625131046     0.730583848050     1.124570452001
    C            1.312458793727     0.363419463763     1.820080873436
    C            2.106355921938    -0.691676495754     1.350520452602
    C            1.753773529816    -1.386320871245     0.188904378149
    C            0.610390552664    -1.029521369469    -0.516187035725
    C           -1.354409636769     0.433661830663    -0.824498377508
    H           -0.472490356135     1.510912659771     1.524731606142
    H            1.580361539641     0.882100255643     2.734707344095
    H            3.000504968026    -0.975259153417     1.897485247284
    H            2.376079744641    -2.199577134300    -0.169948936816
    H            0.345239778940    -1.540646237267    -1.434798494121
    N           -1.903063560407    -0.453223547610    -1.719932302796
    N           -1.745126145519     1.701371035282    -0.850918433024
    H           -2.596554541637     1.994200995228    -1.317588343337
    H           -1.182726745844     2.429847306085    -0.425202216204
    H           -2.502356925220    -1.175462746875    -1.322485783627
    H           -2.424537729591     0.000231856944    -2.469815469201

  Mulliken Charges: (a.u.)
   Center  Symbol    Alpha    Beta     Spin     Total
       1     C     2.94831  2.94831  0.00000  0.10339
       2     C     3.08468  3.08468  0.00000 -0.16935
       3     C     3.06271  3.06271  0.00000 -0.12542
       4     C     3.04927  3.04927  0.00000 -0.09854
       5     C     3.06252  3.06252  0.00000 -0.12504
       6     C     3.06993  3.06993  0.00000 -0.13986
       7     C     2.76394  2.76394  0.00000  0.47211
       8     H     0.41571  0.41571  0.00000  0.16857
       9     H     0.40469  0.40469  0.00000  0.19063
      10     H     0.40216  0.40216  0.00000  0.19567
      11     H     0.40408  0.40408  0.00000  0.19183
      12     H     0.40212  0.40212  0.00000  0.19576
      13     N     3.85906  3.85906  0.00000 -0.71812
      14     N     3.84583  3.84583  0.00000 -0.69167
      15     H     0.30446  0.30446  0.00000  0.39109
      16     H     0.29938  0.29938  0.00000  0.40124
      17     H     0.30331  0.30331  0.00000  0.39338
      18     H     0.31784  0.31784  0.00000  0.36433

   Total alpha = 32.00000, Total beta = 32.00000, Total charge =  1.00000

*** Psi4 exiting successfully. Buy a developer a beer!
