                               Psi4 1.1 release

  ==> Input File <==

--------------------------------------------------------------------------
set_num_threads(1)
set_memory(4203741184)

set { reference rks }
set { basis cc-pVDZ }

molecule MOL {
    0 1
    noreorient
    nocom
    symmetry c1
    O    1.141000   0.017000   0.083000
    C    2.558000   0.086000  -0.005000
    C    3.192000  -0.789000   1.067000
    O    4.610000  -0.719000   0.979000
    H    0.789000   0.590000  -0.620000
    H    2.874000   1.128000   0.115000
    H    2.871000  -0.243000  -1.001000
    H    2.876000  -1.830000   0.947000
    H    2.879000  -0.459000   2.064000
    H    4.862944   0.174632   1.269392
}

set optking { frozen_dihedral = (" 2 3 4 10 ") }

energy, wfn = energy('B3LYP-D3', return_wfn=True)

import os
os.chdir(os.environ['HTMD_PSI4_WORKDIR'])

oeprop(wfn, 'DIPOLE', 'QUADRUPOLE', 'MULLIKEN_CHARGES')

with open('psi4out.xyz', 'w') as f:
    f.write('10 ' )
    f.write('%.12f\n' % energy)
    f.write(MOL.save_string_xyz())
--------------------------------------------------------------------------

    Molecular point group: c1

    Geometry (in Angstrom), charge = 0, multiplicity = 1:

       Center              X                  Y                   Z               Mass
    ------------   -----------------  -----------------  -----------------  -----------------
           O          1.141000000000     0.017000000000     0.083000000000    15.994914619560
           C          2.558000000000     0.086000000000    -0.005000000000    12.000000000000
           C          3.192000000000    -0.789000000000     1.067000000000    12.000000000000
           O          4.610000000000    -0.719000000000     0.979000000000    15.994914619560
           H          0.789000000000     0.590000000000    -0.620000000000     1.007825032070
           H          2.874000000000     1.128000000000     0.115000000000     1.007825032070
           H          2.871000000000    -0.243000000000    -1.001000000000     1.007825032070
           H          2.876000000000    -1.830000000000     0.947000000000     1.007825032070
           H          2.879000000000    -0.459000000000     2.064000000000     1.007825032070
           H          4.862944000000     0.174632000000     1.269392000000     1.007825032070

  Charge       = 0
  Multiplicity = 1
  Basis Set: CC-PVDZ
    Blend: CC-PVDZ
   => B3LYP Composite Functional <=
  Basis Set: (CC-PVDZ AUX)
    Blend: CC-PVDZ-JKFIT

    Orbital Energies (a.u.)
    -----------------------

    Doubly Occupied:

       1A    -19.135206     2A    -19.133261     3A    -10.227480
       4A    -10.227281     5A     -1.021865     6A     -1.010634
       7A     -0.731373     8A     -0.615697     9A     -0.520166
      10A     -0.495615    11A     -0.453457    12A     -0.429961
      13A     -0.397950    14A     -0.342583    15A     -0.325201
      16A     -0.269739    17A     -0.266727

  @DF-RKS Final Energy:  -230.25877665613092

   => Energetics <=

    Nuclear Repulsion Energy =            129.8365405536481489
    One-Electron Energy =                -571.3495984469043378
    Two-Electron Energy =                 235.7970238453797833
    DFT Exchange-Correlation Energy =     -24.5381003782545264
    Empirical Dispersion Energy =          -0.0046422300000000
    PCM Polarization Energy =               0.0000000000000000
    EFP Energy =                            0.0000000000000000
    Total Energy =                       -230.2587766561309195

  Mulliken Charges: (a.u.)
   Center  Symbol    Alpha    Beta     Spin     Total
       1     O     4.13992  4.13992  0.00000 -0.27984
       2     C     2.94375  2.94375  0.00000  0.11250
       3     C     2.92934  2.92934  0.00000  0.14132
       4     O     4.13928  4.13928  0.00000 -0.27856
       5     H     0.42818  0.42818  0.00000  0.14364
       6     H     0.50812  0.50812  0.00000 -0.01624
       7     H     0.49803  0.49803  0.00000  0.00395
       8     H     0.48578  0.48578  0.00000  0.02843
       9     H     0.49700  0.49700  0.00000  0.00601
      10     H     0.43060  0.43060  0.00000  0.13880

   Total alpha = 17.00000, Total beta = 17.00000, Total charge =  0.00000

*** Psi4 exiting successfully. Buy a developer a beer!
