                               Psi4 1.1 release

  ==> Input File <==

--------------------------------------------------------------------------
set_num_threads(1)
set_memory(4203741184)

set { reference rks }
set { basis cc-pVDZ }

molecule MOL {
    0 1
    noreorient
    nocom
    symmetry c1
    O    1.050400   0.042900  -0.048100
    C    2.474100   0.047400  -0.029000
    C    3.002600  -1.068900  -0.932000
    N    4.383203  -1.428788  -0.612757
    H    0.760400   0.728400   0.578000
    H    2.809900  -0.097900   1.003200
    H    2.817400   1.026800  -0.378600
    H    2.934010  -0.761005  -1.981874
    H    2.361652  -1.951856  -0.828900
    H    4.994920  -0.641060  -0.824344
    H    4.676894  -2.184096  -1.232035
}

set optking { frozen_dihedral = (" 1 2 3 4 ") }

energy, wfn = energy('B3LYP-D3', return_wfn=True)

import os
os.chdir(os.environ['HTMD_PSI4_WORKDIR'])

oeprop(wfn, 'DIPOLE', 'QUADRUPOLE', 'MULLIKEN_CHARGES')

with open('psi4out.xyz', 'w') as f:
    f.write('11 ' )
    f.write('%.12f\n' % energy)
    f.write(MOL.save_string_xyz())
--------------------------------------------------------------------------

    Molecular point group: c1

    Geometry (in Angstrom), charge = 0, multiplicity = 1:

       Center              X                  Y                   Z               Mass
    ------------   -----------------  -----------------  -----------------  -----------------
           O          1.050400000000     0.042900000000    -0.048100000000    15.994914619560
           C          2.474100000000     0.047400000000    -0.029000000000    12.000000000000
           C          3.002600000000    -1.068900000000    -0.932000000000    12.000000000000
           N          4.383203000000    -1.428788000000    -0.612757000000    14.003074004780
           H          0.760400000000     0.728400000000     0.578000000000     1.007825032070
           H          2.809900000000    -0.097900000000     1.003200000000     1.007825032070
           H          2.817400000000     1.026800000000    -0.378600000000     1.007825032070
           H          2.934010000000    -0.761005000000    -1.981874000000     1.007825032070
           H          2.361652000000    -1.951856000000    -0.828900000000     1.007825032070
           H          4.994920000000    -0.641060000000    -0.824344000000     1.007825032070
           H          4.676894000000    -2.184096000000    -1.232035000000     1.007825032070

  Charge       = 0
  Multiplicity = 1
  Basis Set: CC-PVDZ
    Blend: CC-PVDZ
   => B3LYP Composite Functional <=
  Basis Set: (CC-PVDZ AUX)
    Blend: CC-PVDZ-JKFIT

    Orbital Energies (a.u.)
    -----------------------

    Doubly Occupied:

       1A    -19.126280     2A    -14.305192     3A    -10.222710
       4A    -10.201425     5A     -1.008704     6A     -0.877007
       7A     -0.712050     8A     -0.596826     9A     -0.506191
      10A     -0.480207    11A     -0.464341    12A     -0.408317
      13A     -0.388423    14A     -0.364674    15A     -0.322885
      16A     -0.259550    17A     -0.231365

  @DF-RKS Final Energy:  -210.39000235048184

   => Energetics <=

    Nuclear Repulsion Energy =            130.4585390236487683
    One-Electron Energy =                -543.8624209021855904
    Two-Electron Energy =                 226.5058520423752952
    DFT Exchange-Correlation Energy =     -23.4871289743203029
    Empirical Dispersion Energy =          -0.0048435400000000
    PCM Polarization Energy =               0.0000000000000000
    EFP Energy =                            0.0000000000000000
    Total Energy =                       -210.3900023504818364

  Mulliken Charges: (a.u.)
   Center  Symbol    Alpha    Beta     Spin     Total
       1     O     4.13965  4.13965  0.00000 -0.27929
       2     C     2.93010  2.93010  0.00000  0.13981
       3     C     2.98468  2.98468  0.00000  0.03064
       4     N     3.59191  3.59191  0.00000 -0.18382
       5     H     0.43015  0.43015  0.00000  0.13970
       6     H     0.49930  0.49930  0.00000  0.00141
       7     H     0.50383  0.50383  0.00000 -0.00767
       8     H     0.50190  0.50190  0.00000 -0.00380
       9     H     0.48855  0.48855  0.00000  0.02290
      10     H     0.46627  0.46627  0.00000  0.06746
      11     H     0.46367  0.46367  0.00000  0.07266

   Total alpha = 17.00000, Total beta = 17.00000, Total charge = -0.00000

*** Psi4 exiting successfully. Buy a developer a beer!
