                               Psi4 1.1 release

  ==> Input File <==

--------------------------------------------------------------------------
set {
	reference rks
	basis 6-31G*
}

set_num_threads( 8 )
memory 2 gb

molecule MOL {
1 1

C	 -0.000000	 -0.000000	 -0.191639
C	 -1.207492	 0.173730	 0.510391
C	 -1.201831	 0.168145	 1.901670
C	 -0.000000	 0.000000	 2.596333
C	 1.201830	 -0.168145	 1.901670
C	 1.207491	 -0.173731	 0.510391
C	 -0.000000	 -0.000000	 -1.658508
H	 -2.148896	 0.261774	 -0.024627
H	 -2.134433	 0.284522	 2.444112
H	 -0.000000	 0.000000	 3.681982
H	 2.134433	 -0.284521	 2.444112
H	 2.148896	 -0.261774	 -0.024627
N	 -0.712589	 -0.905950	 -2.322235
N	 0.712590	 0.905950	 -2.322235
H	 0.673432	 1.006470	 -3.329771
H	 1.377190	 1.485970	 -1.827091
H	 -1.377189	 -1.485970	 -1.827091
H	 -0.673431	 -1.006470	 -3.329771

	symmetry c1
}
set optking { dynamic_level = 1 }
set optking {
	frozen_dihedral = ("
		2 1 7 13
	")
}

ee,wfn = optimize('b3lyp-d3', return_wfn=True)
oeprop( wfn, 'DIPOLE', 'QUADRUPOLE', 'MULLIKEN_CHARGES')
f=open( 'psi4out.xyz', 'w' )
f.write( "18  " )
f.write( str(ee) + "\n" )
f.write( MOL.save_string_xyz() )
f.close()
--------------------------------------------------------------------------

    Molecular point group: c1
  Charge       = 1
  Multiplicity = 1
  Basis Set: 6-31G*
    Blend: 6-31G*
   => B3LYP Composite Functional <=
  Basis Set: (6-31G* AUX)
    Blend: CC-PVDZ-JKFIT
  @DF-RKS Final Energy:  -381.46389332752511
    Total Energy =                       -381.4638933275251134
    Molecular point group: c1
  Basis Set: 6-31G*
    Blend: 6-31G*
  Basis Set: (6-31G* AUX)
    Blend: CC-PVDZ-JKFIT
   => B3LYP Composite Functional <=
  Basis Set: 6-31G*
    Blend: 6-31G*
   => B3LYP Composite Functional <=
  Basis Set: (6-31G* AUX)
    Blend: CC-PVDZ-JKFIT
  @DF-RKS Final Energy:  -381.46710940270509
    Total Energy =                       -381.4671094027050913
  Basis Set: 6-31G*
    Blend: 6-31G*
  Basis Set: (6-31G* AUX)
  @DF-RKS Final Energy:  -381.46800650681274
    Total Energy =                       -381.4680065068127988
  @DF-RKS Final Energy:  -381.46812548172738
    Total Energy =                       -381.4681254817273270
  @DF-RKS Final Energy:  -381.46813423793094
    Total Energy =                       -381.4681342379309399
   => B3LYP Composite Functional <=
  Basis Set: (6-31G* AUX)
    Blend: CC-PVDZ-JKFIT
  @DF-RKS Final Energy:  -381.46813637372532
    Total Energy =                       -381.4681363737253150
  Basis Set: 6-31G*
    Blend: 6-31G*
  Basis Set: (6-31G* AUX)
    Blend: CC-PVDZ-JKFIT
   => B3LYP Composite Functional <=
  Charge       = 1
  Multiplicity = 1
  Basis Set: 6-31G*
    Blend: 6-31G*
   => B3LYP Composite Functional <=
  Basis Set: (6-31G* AUX)
    Blend: CC-PVDZ-JKFIT

    Orbital Energies (a.u.)
    -----------------------

    Doubly Occupied:

       1A    -14.571980     2A    -14.571913     3A    -10.499459
       4A    -10.370396     5A    -10.352701     6A    -10.352171
       7A    -10.338256     8A    -10.337142     9A    -10.336977
      10A     -1.186825    11A     -1.095775    12A     -1.011590
      13A     -0.924315    14A     -0.898653    15A     -0.844958
      16A     -0.786722    17A     -0.769603    18A     -0.748608
      19A     -0.729956    20A     -0.689657    21A     -0.668205
      22A     -0.621298    23A     -0.620267    24A     -0.580943
      25A     -0.575997    26A     -0.570001    27A     -0.517379
      28A     -0.500972    29A     -0.494841    30A     -0.476070
      31A     -0.408402    32A     -0.402129

  @DF-RKS Final Energy:  -381.46813654490177

   => Energetics <=

    Nuclear Repulsion Energy =            416.7170443542196949
    One-Electron Energy =               -1328.7148606681603269
    Two-Electron Energy =                 574.9465648985316193
    DFT Exchange-Correlation Energy =     -44.4049702994928026
    Empirical Dispersion Energy =          -0.0119148300000000
    PCM Polarization Energy =               0.0000000000000000
    EFP Energy =                            0.0000000000000000
    Total Energy =                       -381.4681365449017676
    Molecular point group: c1
  Basis Set: 6-31G*
    Blend: 6-31G*
  Basis Set: (6-31G* AUX)
    Blend: CC-PVDZ-JKFIT
   => B3LYP Composite Functional <=

  -Total Gradient:
     Atom            X                  Y                   Z
    ------   -----------------  -----------------  -----------------
       1        0.000537216633    -0.007721056143    -0.000260914238
       2        0.000712036913     0.004359370080     0.000137139641
       3       -0.000001174975     0.000019360417    -0.000001517935
       4        0.000000703381     0.000003149079    -0.000001555100
       5        0.000002523791    -0.000019781192    -0.000000745589
       6        0.000003304871     0.000010040992     0.000000804165
       7       -0.004857475792     0.006316873197     0.000233111136
       8        0.000002604115    -0.000004560813     0.000000669945
       9        0.000000912773    -0.000003085611     0.000002136423
      10       -0.000000186128     0.000000369058     0.000000302011
      11        0.000000208213     0.000004455378     0.000001218246
      12       -0.000001874230    -0.000001334776     0.000001780958
      13        0.003623077136    -0.002964091706    -0.000090085702
      14       -0.000039029053    -0.000000733620     0.000007579222
      15        0.000009041795    -0.000008436430    -0.000008593453
      16        0.000009709876     0.000007385506    -0.000002195701
      17       -0.000003721416    -0.000005368510    -0.000002121501
      18       -0.000007161951    -0.000002689794    -0.000014738189

  **** Optimization is complete! (in 7 steps) ****
    Final optimized geometry and variables:
    Molecular point group: c1

    Geometry (in Angstrom), charge = 1, multiplicity = 1:

    C           -0.011164409754    -0.042403883048    -0.188793365919
    C           -1.216899931943     0.134897105255     0.509870520873
    C           -1.199909759956     0.165098221497     1.902429645459
    C            0.008025948968     0.020602583244     2.590642399323
    C            1.208260658094    -0.141588305794     1.891685816786
    C            1.208799367887    -0.154418489937     0.499237289880
    C           -0.015159295700     0.002691257923    -1.661521224564
    H           -2.150507895708     0.265039944211    -0.030373361693
    H           -2.126338664213     0.309474263728     2.448864438132
    H            0.015296443439     0.039342339745     3.676102086144
    H            2.143037228481    -0.256195506900     2.430962960799
    H            2.137503275658    -0.287387069697    -0.048564533426
    N           -0.749843843494    -0.871236871221    -2.337515010500
    N            0.763221471470     0.875836043765    -2.287492120193
    H            0.877389050480     0.898138814531    -3.294956629191
    H            1.249810347573     1.581176673490    -1.748674378033
    H           -1.258551275324    -1.585947832809    -1.832437570998
    H           -0.858624392508    -0.847494901305    -3.345566975093

  Mulliken Charges: (a.u.)
   Center  Symbol    Alpha    Beta     Spin     Total
       1     C     2.97727  2.97727  0.00000  0.04545
       2     C     3.07524  3.07524  0.00000 -0.15049
       3     C     3.06177  3.06177  0.00000 -0.12354
       4     C     3.05254  3.05254  0.00000 -0.10509
       5     C     3.06321  3.06321  0.00000 -0.12641
       6     C     3.07714  3.07714  0.00000 -0.15428
       7     C     2.73650  2.73650  0.00000  0.52701
       8     H     0.41341  0.41341  0.00000  0.17317
       9     H     0.40631  0.40631  0.00000  0.18738
      10     H     0.40525  0.40525  0.00000  0.18950
      11     H     0.40629  0.40629  0.00000  0.18741
      12     H     0.41332  0.41332  0.00000  0.17336
      13     N     3.85217  3.85217  0.00000 -0.70435
      14     N     3.85375  3.85375  0.00000 -0.70750
      15     H     0.30534  0.30534  0.00000  0.38931
      16     H     0.29767  0.29767  0.00000  0.40465
      17     H     0.29723  0.29723  0.00000  0.40554
      18     H     0.30556  0.30556  0.00000  0.38888

   Total alpha = 32.00000, Total beta = 32.00000, Total charge =  1.00000

*** Psi4 exiting successfully. Buy a developer a beer!
