                              Psi4 1.0.54 Driver

  ==> Input File <==

--------------------------------------------------------------------------
set_num_threads(1)
set_memory(3145728000)

set { reference rks }
set { basis 6-31G* }

molecule MOL {
    1 1
    noreorient
    nocom
    symmetry c1
    C    0.000000   0.000000  -0.177864
    C    0.036678   1.219374   0.524165
    C    0.031764   1.213119   1.915444
    C   -0.000000  -0.000000   2.610107
    C   -0.031764  -1.213119   1.915444
    C   -0.036677  -1.219374   0.524165
    C    0.000000  -0.000000  -1.644734
    H    0.018170   2.164705  -0.010853
    H    0.042402   2.152895   2.457886
    H   -0.000000  -0.000000   3.695756
    H   -0.042402  -2.152895   2.457886
    H   -0.018170  -2.164705  -0.010853
    N   -0.034654  -1.152098  -2.308460
    N    0.034654   1.152097  -2.308461
    H   -0.056579   1.209665  -3.315997
    H    0.224422   2.013552  -1.813317
    H   -0.224422  -2.013552  -1.813316
    H    0.056579  -1.209665  -3.315997
}

set optking { frozen_dihedral = (" 2 1 7 13 ") }

set optking { dynamic_level = 1
 geom_maxiter = 250
 print_trajectory_xyz_file = True }

energy, wfn = optimize('B3LYP-D3', return_wfn=True)

import os
os.chdir(os.environ['HTMD_PSI4_WORKDIR'])

oeprop(wfn, 'DIPOLE', 'QUADRUPOLE', 'MULLIKEN_CHARGES')

with open('psi4out.xyz', 'w') as f:
    f.write('18 ' )
    f.write('%.12f\n' % energy)
    f.write(MOL.save_string_xyz())
--------------------------------------------------------------------------

    Molecular point group: c1
  Charge       = 1
  Multiplicity = 1
  Basis Set: 6-31G*
   => B3LYP-D3 Composite Functional <=
  Basis Set:
  @DF-RKS Final Energy:  -381.46394988871066
    Total Energy =                       -381.4639498887106583
    Molecular point group: c1
  Basis Set: 6-31G*
  Basis Set:
   => B3LYP-D3 Composite Functional <=
  Basis Set: 6-31G*
   => B3LYP-D3 Composite Functional <=
  Basis Set:
  @DF-RKS Final Energy:  -381.46529059394373
    Total Energy =                       -381.4652905939437346
  Basis Set: 6-31G*
  Basis Set:
   => B3LYP-D3 Composite Functional <=
  Basis Set: 6-31G*
   => B3LYP-D3 Composite Functional <=
  Basis Set:
  @DF-RKS Final Energy:  -381.46578881832534
    Total Energy =                       -381.4657888183252794
  Basis Set: 6-31G*
  Basis Set:
  @DF-RKS Final Energy:  -381.46582677384856
    Total Energy =                       -381.4658267738485620
  @DF-RKS Final Energy:  -381.46584965583276
    Total Energy =                       -381.4658496558328693
  @DF-RKS Final Energy:  -381.46586367111070
    Total Energy =                       -381.4658636711105828
  @DF-RKS Final Energy:  -381.46587575707343
    Total Energy =                       -381.4658757570733769
  @DF-RKS Final Energy:  -381.46588461007025
    Total Energy =                       -381.4658846100702476
   => B3LYP-D3 Composite Functional <=
  Basis Set:
  @DF-RKS Final Energy:  -381.46588939982530
    Total Energy =                       -381.4658893998253006
  Basis Set: 6-31G*
  Basis Set:
   => B3LYP-D3 Composite Functional <=
  Basis Set: 6-31G*
   => B3LYP-D3 Composite Functional <=
  Basis Set:
  @DF-RKS Final Energy:  -381.46589065928316
    Total Energy =                       -381.4658906592831045
  Basis Set: 6-31G*
  Basis Set:
   => B3LYP-D3 Composite Functional <=
  Charge       = 1
  Multiplicity = 1
  Basis Set: 6-31G*
   => B3LYP-D3 Composite Functional <=
  Basis Set:

    Orbital Energies (a.u.)
    -----------------------

    Doubly Occupied:

       1A    -14.564711     2A    -14.564703     3A    -10.498757
       4A    -10.378882     5A    -10.361854     6A    -10.361845
       7A    -10.346501     8A    -10.342991     9A    -10.342949
      10A     -1.183291    11A     -1.088909    12A     -1.017527
      13A     -0.928935    14A     -0.906417    15A     -0.849308
      16A     -0.787674    17A     -0.776884    18A     -0.740264
      19A     -0.736051    20A     -0.685681    21A     -0.669528
      22A     -0.632597    23A     -0.609459    24A     -0.604850
      25A     -0.582658    26A     -0.578605    27A     -0.518370
      28A     -0.510322    29A     -0.501907    30A     -0.469689
      31A     -0.413529    32A     -0.408122

  @DF-RKS Final Energy:  -381.46589077299018

   => Energetics <=

    Nuclear Repulsion Energy =            416.4716418520911247
    One-Electron Energy =               -1327.9979748869643572
    Two-Electron Energy =                 574.4813627487594658
    DFT Exchange-Correlation Energy =     -44.4094682368763785
    Empirical Dispersion Energy =          -0.0114522500000000
    PCM Polarization Energy =               0.0000000000000000
    EFP Energy =                            0.0000000000000000
    Total Energy =                       -381.4658907729901216
    Molecular point group: c1
  Basis Set: 6-31G*
  Basis Set:
   => B3LYP-D3 Composite Functional <=

  -Total Gradient:
     Atom            X                  Y                   Z
    ------   -----------------  -----------------  -----------------
       1       -0.000020542324     0.000003538840     0.000007764588
       2       -0.000002863866    -0.000008294874    -0.000008982721
       3        0.000014253995    -0.000004170357     0.000010072849
       4       -0.000010348298     0.000005681565     0.000003755803
       5       -0.000004510849    -0.000002882302     0.000002079575
       6        0.000000007947     0.000007815962    -0.000004308208
       7        0.000047710334    -0.000014035977    -0.000012859413
       8       -0.000000940136     0.000001567633     0.000007348514
       9        0.000000084501     0.000000862669    -0.000000650578
      10        0.000002642766    -0.000000856492     0.000001137550
      11        0.000004973060     0.000000440500     0.000000153888
      12       -0.000000752707    -0.000001737501     0.000003841392
      13       -0.000006880645     0.000021880309     0.000020764519
      14       -0.000034825617    -0.000007030582     0.000006220578
      15        0.000007361717     0.000001993242     0.000000466279
      16        0.000005282110    -0.000006344672    -0.000004206782
      17       -0.000001573684     0.000008000816    -0.000006791479
      18        0.000000936417    -0.000006410134    -0.000001284646

  **** Optimization is complete! (in 11 steps) ****
    Final optimized geometry and variables:
    Molecular point group: c1

    Geometry (in Angstrom), charge = 1, multiplicity = 1:

    C           -0.000206174226     0.000030096584    -0.176805253573
    C            0.040937598435     1.211133666967     0.543173437568
    C            0.041061584976     1.208842126702     1.932883465375
    C            0.000026492226    -0.000017334519     2.631904196264
    C           -0.041080555884    -1.208863887666     1.932844609436
    C           -0.041231258025    -1.211101347666     0.543144196936
    C            0.000000494538     0.000013054555    -1.649477177041
    H            0.073497328330     2.174539856004     0.044048444772
    H            0.073114296902     2.151070326572     2.469861441122
    H            0.000195874220    -0.000047051513     3.717439448747
    H           -0.072928571818    -2.151105110542     2.469809160692
    H           -0.073877971391    -2.174484159706     0.043976378746
    N           -0.038714914663    -1.139998565499    -2.337132450891
    N            0.038479464633     1.140024878072    -2.337175429093
    H            0.039800414764     1.159542380655    -3.349212977529
    H            0.069685027448     2.035887453544    -1.874585869857
    H           -0.069447786671    -2.035863338079    -1.874522959100
    H           -0.039310343796    -1.159604044466    -3.349171662574

  Mulliken Charges: (a.u.)
   Center  Symbol    Alpha    Beta     Spin     Total
       1     C     2.92330  2.92330  0.00000  0.15339
       2     C     3.08669  3.08669  0.00000 -0.17339
       3     C     3.06153  3.06153  0.00000 -0.12306
       4     C     3.05119  3.05119  0.00000 -0.10238
       5     C     3.06153  3.06153  0.00000 -0.12306
       6     C     3.08669  3.08669  0.00000 -0.17339
       7     C     2.70472  2.70472  0.00000  0.59055
       8     H     0.42243  0.42243  0.00000  0.15513
       9     H     0.40493  0.40493  0.00000  0.19014
      10     H     0.40263  0.40263  0.00000  0.19475
      11     H     0.40493  0.40493  0.00000  0.19014
      12     H     0.42244  0.42244  0.00000  0.15513
      13     N     3.87877  3.87877  0.00000 -0.75755
      14     N     3.87877  3.87877  0.00000 -0.75755
      15     H     0.30596  0.30596  0.00000  0.38808
      16     H     0.29876  0.29876  0.00000  0.40249
      17     H     0.29876  0.29876  0.00000  0.40249
      18     H     0.30596  0.30596  0.00000  0.38808

   Total alpha = 32.00000, Total beta = 32.00000, Total charge =  1.00000

*** Psi4 exiting successfully. Buy a developer a beer!
