                               Psi4 1.1 release

  ==> Input File <==

--------------------------------------------------------------------------
set_num_threads( 8 )
memory 2.000000 gb

set { reference rks }
set { basis cc-pVDZ }

molecule MOL {
    0 1
    noreorient
    nocom
    symmetry c1
    O    1.141000   0.017000   0.083000
    C    2.558000   0.086000  -0.005000
    C    3.192000  -0.789000   1.067000
    O    4.001093  -1.791424   0.463773
    H    0.789000   0.590000  -0.620000
    H    2.874000   1.128000   0.115000
    H    2.871000  -0.243000  -1.001000
    H    2.418939  -1.269543   1.674777
    H    3.813109  -0.183351   1.736545
    H    4.378788  -2.318085   1.189624
}

set optking { frozen_dihedral = (" 1 2 3 4, 2 3 4 10 ") }

energy, wfn = energy('B3LYP-D3', return_wfn=True)

import os
os.chdir(os.environ['HTMD_PSI4_WORKDIR'])

oeprop(wfn, 'DIPOLE', 'QUADRUPOLE', 'MULLIKEN_CHARGES')

with open('psi4out.xyz', 'w') as f:
    f.write('10 ' )
    f.write('%.12f\n' % energy)
    f.write(MOL.save_string_xyz())
--------------------------------------------------------------------------

    Molecular point group: c1

    Geometry (in Angstrom), charge = 0, multiplicity = 1:

       Center              X                  Y                   Z               Mass
    ------------   -----------------  -----------------  -----------------  -----------------
           O          1.141000000000     0.017000000000     0.083000000000    15.994914619560
           C          2.558000000000     0.086000000000    -0.005000000000    12.000000000000
           C          3.192000000000    -0.789000000000     1.067000000000    12.000000000000
           O          4.001093000000    -1.791424000000     0.463773000000    15.994914619560
           H          0.789000000000     0.590000000000    -0.620000000000     1.007825032070
           H          2.874000000000     1.128000000000     0.115000000000     1.007825032070
           H          2.871000000000    -0.243000000000    -1.001000000000     1.007825032070
           H          2.418939000000    -1.269543000000     1.674777000000     1.007825032070
           H          3.813109000000    -0.183351000000     1.736545000000     1.007825032070
           H          4.378788000000    -2.318085000000     1.189624000000     1.007825032070

  Charge       = 0
  Multiplicity = 1
  Basis Set: CC-PVDZ
    Blend: CC-PVDZ
   => B3LYP Composite Functional <=
  Basis Set: (CC-PVDZ AUX)
    Blend: CC-PVDZ-JKFIT

    Orbital Energies (a.u.)
    -----------------------

    Doubly Occupied:

       1A    -19.128454     2A    -19.128414     3A    -10.225318
       4A    -10.225127     5A     -1.017305     6A     -1.005072
       7A     -0.732720     8A     -0.603210     9A     -0.520812
      10A     -0.504674    11A     -0.438431    12A     -0.410775
      13A     -0.407509    14A     -0.346513    15A     -0.320093
      16A     -0.266204    17A     -0.255958

  @DF-RKS Final Energy:  -230.25322007630166

   => Energetics <=

    Nuclear Repulsion Energy =            130.1032250544255078
    One-Electron Energy =                -572.0053398636591737
    Two-Electron Energy =                 236.1949164149662295
    DFT Exchange-Correlation Energy =     -24.5417798820342092
    Empirical Dispersion Energy =          -0.0042418000000000
    PCM Polarization Energy =               0.0000000000000000
    EFP Energy =                            0.0000000000000000
    Total Energy =                       -230.2532200763016590

  Mulliken Charges: (a.u.)
   Center  Symbol    Alpha    Beta     Spin     Total
       1     O     4.14015  4.14015  0.00000 -0.28029
       2     C     2.93297  2.93297  0.00000  0.13406
       3     C     2.93307  2.93307  0.00000  0.13385
       4     O     4.14036  4.14036  0.00000 -0.28072
       5     H     0.43042  0.43042  0.00000  0.13916
       6     H     0.50238  0.50238  0.00000 -0.00475
       7     H     0.49404  0.49404  0.00000  0.01191
       8     H     0.49396  0.49396  0.00000  0.01207
       9     H     0.50228  0.50228  0.00000 -0.00455
      10     H     0.43037  0.43037  0.00000  0.13926

   Total alpha = 17.00000, Total beta = 17.00000, Total charge = -0.00000

*** Psi4 exiting successfully. Buy a developer a beer!
