                               Psi4 1.1 release

  ==> Input File <==

--------------------------------------------------------------------------
set_num_threads( 8 )
memory 2.000000 gb

set { reference rks }
set { basis cc-pVDZ }

molecule MOL {
    0 1
    noreorient
    nocom
    symmetry c1
    O    1.050400   0.042900  -0.048100
    C    2.474100   0.047400  -0.029000
    C    3.002600  -1.068900  -0.932000
    N    1.939499  -1.970044  -1.373878
    H    0.760400   0.728400   0.578000
    H    2.809900  -0.097900   1.003200
    H    2.817400   1.026800  -0.378600
    H    3.775196  -1.639494  -0.403552
    H    3.492821  -0.625712  -1.806256
    H    1.565618  -2.471423  -0.568698
    H    2.344383  -2.681674  -1.982074
}

set optking { frozen_dihedral = (" 1 2 3 4 ") }

energy, wfn = energy('B3LYP-D3', return_wfn=True)

import os
os.chdir(os.environ['HTMD_PSI4_WORKDIR'])

oeprop(wfn, 'DIPOLE', 'QUADRUPOLE', 'MULLIKEN_CHARGES')

with open('psi4out.xyz', 'w') as f:
    f.write('11 ' )
    f.write('%.12f\n' % energy)
    f.write(MOL.save_string_xyz())
--------------------------------------------------------------------------

    Molecular point group: c1

    Geometry (in Angstrom), charge = 0, multiplicity = 1:

       Center              X                  Y                   Z               Mass
    ------------   -----------------  -----------------  -----------------  -----------------
           O          1.050400000000     0.042900000000    -0.048100000000    15.994914619560
           C          2.474100000000     0.047400000000    -0.029000000000    12.000000000000
           C          3.002600000000    -1.068900000000    -0.932000000000    12.000000000000
           N          1.939499000000    -1.970044000000    -1.373878000000    14.003074004780
           H          0.760400000000     0.728400000000     0.578000000000     1.007825032070
           H          2.809900000000    -0.097900000000     1.003200000000     1.007825032070
           H          2.817400000000     1.026800000000    -0.378600000000     1.007825032070
           H          3.775196000000    -1.639494000000    -0.403552000000     1.007825032070
           H          3.492821000000    -0.625712000000    -1.806256000000     1.007825032070
           H          1.565618000000    -2.471423000000    -0.568698000000     1.007825032070
           H          2.344383000000    -2.681674000000    -1.982074000000     1.007825032070

  Charge       = 0
  Multiplicity = 1
  Basis Set: CC-PVDZ
    Blend: CC-PVDZ
   => B3LYP Composite Functional <=
  Basis Set: (CC-PVDZ AUX)
    Blend: CC-PVDZ-JKFIT

    Orbital Energies (a.u.)
    -----------------------

    Doubly Occupied:

       1A    -19.121656     2A    -14.293935     3A    -10.222586
       4A    -10.200797     5A     -1.005610     6A     -0.866762
       7A     -0.714042     8A     -0.590410     9A     -0.510028
      10A     -0.480912    11A     -0.441595    12A     -0.413487
      13A     -0.387657    14A     -0.357722    15A     -0.320583
      16A     -0.255804    17A     -0.217890

  @DF-RKS Final Energy:  -210.38082276076790

   => Energetics <=

    Nuclear Repulsion Energy =            134.0855123368825446
    One-Electron Energy =                -551.2452467553430324
    Two-Electron Energy =                 230.2741845356549106
    DFT Exchange-Correlation Energy =     -23.4904190479623054
    Empirical Dispersion Energy =          -0.0048538300000000
    PCM Polarization Energy =               0.0000000000000000
    EFP Energy =                            0.0000000000000000
    Total Energy =                       -210.3808227607678987

  Mulliken Charges: (a.u.)
   Center  Symbol    Alpha    Beta     Spin     Total
       1     O     4.13163  4.13163  0.00000 -0.26327
       2     C     2.93053  2.93053  0.00000  0.13895
       3     C     2.98695  2.98695  0.00000  0.02610
       4     N     3.57949  3.57949  0.00000 -0.15899
       5     H     0.43339  0.43339  0.00000  0.13322
       6     H     0.50377  0.50377  0.00000 -0.00754
       7     H     0.50100  0.50100  0.00000 -0.00200
       8     H     0.50561  0.50561  0.00000 -0.01123
       9     H     0.49324  0.49324  0.00000  0.01353
      10     H     0.46601  0.46601  0.00000  0.06799
      11     H     0.46838  0.46838  0.00000  0.06324

   Total alpha = 17.00000, Total beta = 17.00000, Total charge =  0.00000

*** Psi4 exiting successfully. Buy a developer a beer!
