                              Psi4 1.0.54 Driver

  ==> Input File <==

--------------------------------------------------------------------------
set_num_threads(1)
set_memory(3145728000)

set { reference rks }
set { basis 6-31G* }

molecule MOL {
    1 1
    noreorient
    nocom
    symmetry c1
    C    0.000000   0.000000  -0.177864
    C    0.036678   1.219374   0.524165
    C    0.031764   1.213119   1.915444
    C   -0.000000  -0.000000   2.610107
    C   -0.031764  -1.213119   1.915444
    C   -0.036677  -1.219374   0.524165
    C    0.000000  -0.000000  -1.644734
    H    0.018170   2.164705  -0.010853
    H    0.042402   2.152895   2.457886
    H   -0.000000  -0.000000   3.695756
    H   -0.042402  -2.152895   2.457886
    H   -0.018170  -2.164705  -0.010853
    N   -0.712590  -0.905950  -2.308460
    N    0.712590   0.905950  -2.308461
    H    0.673432   1.006469  -3.315997
    H    1.377190   1.485970  -1.813317
    H   -0.835873  -0.816343  -3.308488
    H   -1.094180  -1.735515  -1.869168
}

set optking { frozen_dihedral = (" 1 7 13 17 ") }

set optking { dynamic_level = 1
 geom_maxiter = 250
 print_trajectory_xyz_file = True }

energy, wfn = optimize('B3LYP-D3', return_wfn=True)

import os
os.chdir(os.environ['HTMD_PSI4_WORKDIR'])

oeprop(wfn, 'DIPOLE', 'QUADRUPOLE', 'MULLIKEN_CHARGES')

with open('psi4out.xyz', 'w') as f:
    f.write('18 ' )
    f.write('%.12f\n' % energy)
    f.write(MOL.save_string_xyz())
--------------------------------------------------------------------------

    Molecular point group: c1
  Charge       = 1
  Multiplicity = 1
  Basis Set: 6-31G*
   => B3LYP-D3 Composite Functional <=
  Basis Set:
  @DF-RKS Final Energy:  -381.46558326490197
    Total Energy =                       -381.4655832649019658
    Molecular point group: c1
  Basis Set: 6-31G*
  Basis Set:
   => B3LYP-D3 Composite Functional <=
  Basis Set: 6-31G*
   => B3LYP-D3 Composite Functional <=
  Basis Set:
  @DF-RKS Final Energy:  -381.46798989667263
    Total Energy =                       -381.4679898966726910
  Basis Set: 6-31G*
  Basis Set:
   => B3LYP-D3 Composite Functional <=
  Basis Set: 6-31G*
   => B3LYP-D3 Composite Functional <=
  Basis Set:
  @DF-RKS Final Energy:  -381.46923132425979
    Total Energy =                       -381.4692313242597947
  Basis Set: 6-31G*
  Basis Set:
  @DF-RKS Final Energy:  -381.46951111056461
    Total Energy =                       -381.4695111105646106
   => B3LYP-D3 Composite Functional <=
  Basis Set:
  @DF-RKS Final Energy:  -381.46954309346620
    Total Energy =                       -381.4695430934663136
  Basis Set: 6-31G*
  Basis Set:
   => B3LYP-D3 Composite Functional <=
  Basis Set: 6-31G*
   => B3LYP-D3 Composite Functional <=
  Basis Set:
  @DF-RKS Final Energy:  -381.46954790600029
    Total Energy =                       -381.4695479060002299
  Basis Set: 6-31G*
  Basis Set:
   => B3LYP-D3 Composite Functional <=
  Charge       = 1
  Multiplicity = 1
  Basis Set: 6-31G*
   => B3LYP-D3 Composite Functional <=
  Basis Set:

    Orbital Energies (a.u.)
    -----------------------

    Doubly Occupied:

       1A    -14.569670     2A    -14.568026     3A    -10.498405
       4A    -10.373852     5A    -10.356524     6A    -10.355879
       7A    -10.342673     8A    -10.340497     9A    -10.340362
      10A     -1.184939    11A     -1.093298    12A     -1.014472
      13A     -0.926871    14A     -0.902285    15A     -0.845597
      16A     -0.785856    17A     -0.774310    18A     -0.740897
      19A     -0.733103    20A     -0.687162    21A     -0.668773
      22A     -0.626299    23A     -0.617192    24A     -0.589620
      25A     -0.578548    26A     -0.573577    27A     -0.517974
      28A     -0.505838    29A     -0.498253    30A     -0.474473
      31A     -0.411209    32A     -0.405731

  @DF-RKS Final Energy:  -381.46954840902532

   => Energetics <=

    Nuclear Repulsion Energy =            416.9224498507859948
    One-Electron Energy =               -1329.0322291826385026
    Two-Electron Energy =                 575.0574575382233888
    DFT Exchange-Correlation Energy =     -44.4053149653962009
    Empirical Dispersion Energy =          -0.0119116500000000
    PCM Polarization Energy =               0.0000000000000000
    EFP Energy =                            0.0000000000000000
    Total Energy =                       -381.4695484090252648
    Molecular point group: c1
  Basis Set: 6-31G*
  Basis Set:
   => B3LYP-D3 Composite Functional <=

  -Total Gradient:
     Atom            X                  Y                   Z
    ------   -----------------  -----------------  -----------------
       1       -0.002298193045     0.001725452714     0.000056390334
       2       -0.000016791423    -0.000000143053    -0.000021941607
       3        0.000007704084     0.000002380675     0.000004922551
       4       -0.000008614083    -0.000006708591    -0.000013841773
       5        0.000003049613     0.000013833854     0.000006814784
       6       -0.000017342411    -0.000018413039    -0.000010931760
       7        0.002123425307    -0.001707621155     0.000200732807
       8        0.000009165262    -0.000004662213    -0.000004645170
       9        0.000002258089    -0.000002908677    -0.000001689291
      10        0.000002702824     0.000000725663    -0.000000878230
      11        0.000005813705    -0.000002282256    -0.000001386724
      12        0.000011149553     0.000006197128    -0.000000947244
      13        0.003790815014    -0.002187865963    -0.000862272201
      14       -0.000003666607    -0.000057379914    -0.000000871021
      15       -0.000016305321     0.000014518860     0.000000492827
      16       -0.000007594897    -0.000006424062     0.000007871221
      17       -0.003557987361     0.002241865060     0.000606151332
      18       -0.000032662020    -0.000013927253     0.000012127171

  **** Optimization is complete! (in 7 steps) ****
    Final optimized geometry and variables:
    Molecular point group: c1

    Geometry (in Angstrom), charge = 1, multiplicity = 1:

    C            0.026825074899    -0.015150154962    -0.181338378696
    C            0.034002323154     1.206733135827     0.516542089745
    C            0.010191615301     1.204187661913     1.907957118430
    C           -0.008100652873    -0.006650394123     2.606463879175
    C           -0.008087886601    -1.222189541643     1.915318459965
    C            0.004767692606    -1.232798518079     0.524139843088
    C            0.035763341100    -0.017884897582    -1.649317474394
    H            0.005226221762     2.150711313774    -0.020298383204
    H           -0.003572577016     2.145932904264     2.446924180830
    H           -0.022118856729    -0.003122404825     3.691996796427
    H           -0.007471747834    -2.160466697560     2.460469934081
    H            0.048272921023    -2.179424277310    -0.007358804530
    N           -0.657235281022    -0.941623251349    -2.314319274631
    N            0.717533805503     0.912020816473    -2.310033017629
    H            0.700962629996     0.993880826060    -3.319986141507
    H            1.362728404539     1.511786723547    -1.812523363641
    H           -0.799289878675    -0.892437234936    -3.316935628015
    H           -1.319827149136    -1.512925009489    -1.805043835496

  Mulliken Charges: (a.u.)
   Center  Symbol    Alpha    Beta     Spin     Total
       1     C     2.95714  2.95714  0.00000  0.08572
       2     C     3.08255  3.08255  0.00000 -0.16510
       3     C     3.06250  3.06250  0.00000 -0.12500
       4     C     3.05161  3.05161  0.00000 -0.10322
       5     C     3.06243  3.06243  0.00000 -0.12485
       6     C     3.08333  3.08333  0.00000 -0.16667
       7     C     2.72482  2.72482  0.00000  0.55037
       8     H     0.41466  0.41466  0.00000  0.17069
       9     H     0.40550  0.40550  0.00000  0.18901
      10     H     0.40396  0.40396  0.00000  0.19209
      11     H     0.40536  0.40536  0.00000  0.18928
      12     H     0.41276  0.41276  0.00000  0.17448
      13     N     3.86012  3.86012  0.00000 -0.72025
      14     N     3.86196  3.86196  0.00000 -0.72392
      15     H     0.30538  0.30538  0.00000  0.38925
      16     H     0.29918  0.29918  0.00000  0.40163
      17     H     0.30618  0.30618  0.00000  0.38764
      18     H     0.30057  0.30057  0.00000  0.39886

   Total alpha = 32.00000, Total beta = 32.00000, Total charge =  1.00000

*** Psi4 exiting successfully. Buy a developer a beer!
