                               Psi4 1.1 release

  ==> Input File <==

--------------------------------------------------------------------------
set {
	reference rks
	basis 6-31G*
}

set_num_threads( 8 )
memory 2 gb

molecule MOL {
1 1

C	 0.433250	 1.228271	 -2.333305
C	 1.692032	 1.784667	 -2.038420
C	 2.099388	 2.947229	 -2.685129
C	 1.256698	 3.562756	 -3.615842
C	 0.003661	 3.014942	 -3.907430
C	 -0.410831	 1.847551	 -3.274093
C	 -0.000000	 -0.000000	 -1.658508
H	 2.367267	 1.286713	 -1.348250
H	 3.076750	 3.367596	 -2.471617
H	 1.577353	 4.471815	 -4.115267
H	 -0.653273	 3.502993	 -4.620014
H	 -1.402110	 1.449521	 -3.472019
N	 -0.712589	 -0.905950	 -2.322235
N	 0.320515	 -0.205582	 -0.384119
H	 0.125895	 -1.074817	 0.098914
H	 0.717016	 0.546798	 0.163600
H	 -1.377189	 -1.485970	 -1.827091
H	 -0.673431	 -1.006470	 -3.329771

	symmetry c1
}
set optking { dynamic_level = 1 }
set optking {
	frozen_dihedral = ("
		1 7 13 17
	")
}

ee,wfn = optimize('b3lyp-d3', return_wfn=True)
oeprop( wfn, 'DIPOLE', 'QUADRUPOLE', 'MULLIKEN_CHARGES')
f=open( 'psi4out.xyz', 'w' )
f.write( "18  " )
f.write( str(ee) + "\n" )
f.write( MOL.save_string_xyz() )
f.close()
--------------------------------------------------------------------------

    Molecular point group: c1
  Charge       = 1
  Multiplicity = 1
  Basis Set: 6-31G*
    Blend: 6-31G*
   => B3LYP Composite Functional <=
  Basis Set: (6-31G* AUX)
    Blend: CC-PVDZ-JKFIT
  @DF-RKS Final Energy:  -381.46623701955411
    Total Energy =                       -381.4662370195541143
    Molecular point group: c1
  Basis Set: 6-31G*
    Blend: 6-31G*
  Basis Set: (6-31G* AUX)
    Blend: CC-PVDZ-JKFIT
   => B3LYP Composite Functional <=
  Basis Set: 6-31G*
    Blend: 6-31G*
   => B3LYP Composite Functional <=
  Basis Set: (6-31G* AUX)
    Blend: CC-PVDZ-JKFIT
  @DF-RKS Final Energy:  -381.46770799426633
    Total Energy =                       -381.4677079942663340
  Basis Set: 6-31G*
    Blend: 6-31G*
  Basis Set: (6-31G* AUX)
  @DF-RKS Final Energy:  -381.46846050556042
    Total Energy =                       -381.4684605055603583
  @DF-RKS Final Energy:  -381.46852326849012
    Total Energy =                       -381.4685232684901735
   => B3LYP Composite Functional <=
  Basis Set: (6-31G* AUX)
    Blend: CC-PVDZ-JKFIT
  @DF-RKS Final Energy:  -381.46853116815737
    Total Energy =                       -381.4685311681574262
  Basis Set: 6-31G*
    Blend: 6-31G*
  Basis Set: (6-31G* AUX)
    Blend: CC-PVDZ-JKFIT
   => B3LYP Composite Functional <=
  Charge       = 1
  Multiplicity = 1
  Basis Set: 6-31G*
    Blend: 6-31G*
   => B3LYP Composite Functional <=
  Basis Set: (6-31G* AUX)
    Blend: CC-PVDZ-JKFIT

    Orbital Energies (a.u.)
    -----------------------

    Doubly Occupied:

       1A    -14.568125     2A    -14.563746     3A    -10.496249
       4A    -10.374190     5A    -10.358640     6A    -10.357754
       7A    -10.345573     8A    -10.342240     9A    -10.342081
      10A     -1.182150    11A     -1.089718    12A     -1.015741
      13A     -0.927404    14A     -0.904012    15A     -0.844501
      16A     -0.784854    17A     -0.772172    18A     -0.741560
      19A     -0.732614    20A     -0.687092    21A     -0.670868
      22A     -0.627916    23A     -0.616205    24A     -0.585270
      25A     -0.580765    26A     -0.572136    27A     -0.520277
      28A     -0.507223    29A     -0.499614    30A     -0.471594
      31A     -0.414185    32A     -0.407544

  @DF-RKS Final Energy:  -381.46853214743504

   => Energetics <=

    Nuclear Repulsion Energy =            416.8155838676140093
    One-Electron Energy =               -1328.8134040242093761
    Two-Electron Energy =                 574.9454578668387512
    DFT Exchange-Correlation Energy =     -44.4042155776784924
    Empirical Dispersion Energy =          -0.0119542800000000
    PCM Polarization Energy =               0.0000000000000000
    EFP Energy =                            0.0000000000000000
    Total Energy =                       -381.4685321474350985
    Molecular point group: c1
  Basis Set: 6-31G*
    Blend: 6-31G*
  Basis Set: (6-31G* AUX)
    Blend: CC-PVDZ-JKFIT
   => B3LYP Composite Functional <=

  -Total Gradient:
     Atom            X                  Y                   Z
    ------   -----------------  -----------------  -----------------
       1       -0.003443544700     0.001769595602     0.001211556554
       2        0.000047375168     0.000029885099    -0.000034638861
       3       -0.000008981324     0.000004829561     0.000007674640
       4        0.000011875094     0.000023057766     0.000028806204
       5       -0.000033581901    -0.000020462903     0.000003642630
       6        0.000057530878     0.000014776494    -0.000024572759
       7        0.003498482890    -0.001203276711    -0.002205909128
       8       -0.000006506031    -0.000003587309    -0.000002156888
       9        0.000002919077     0.000001812790    -0.000003971221
      10        0.000009785181    -0.000010848777    -0.000010993143
      11        0.000002288158    -0.000002667220    -0.000000566381
      12       -0.000017251636    -0.000002137908    -0.000003625812
      13        0.004104006483    -0.004521996408     0.002052984349
      14        0.000061173948    -0.000047616872     0.000041776026
      15       -0.000020718033     0.000003555530    -0.000003888085
      16       -0.000009552902    -0.000003198523    -0.000014235866
      17       -0.004233640031     0.003959083950    -0.000936296388
      18       -0.000028156476    -0.000016912485    -0.000092170406

  **** Optimization is complete! (in 6 steps) ****
    Final optimized geometry and variables:
    Molecular point group: c1

    Geometry (in Angstrom), charge = 1, multiplicity = 1:

    C           -0.045188688473    -0.168169830311     0.080809018357
    C            1.203058025692     0.408085889910     0.387964401074
    C            1.598792066920     1.577958452448    -0.251076590511
    C            0.756035230227     2.180642078466    -1.190900735629
    C           -0.484264875748     1.612618288280    -1.498616369684
    C           -0.886685893965     0.437784126084    -0.872037067366
    C           -0.475118346271    -1.392134609573     0.758476783366
    H            1.878376813158    -0.081988527642     1.083787260289
    H            2.566954440212     2.013904502598    -0.027223097267
    H            1.067685150239     3.095144904945    -1.686158937258
    H           -1.139848461779     2.090460396811    -2.219284779619
    H           -1.868602211535     0.024346538628    -1.083980008883
    N           -1.195442317359    -2.313066560697     0.113071084388
    N           -0.174184836576    -1.585419030023     2.039444061067
    H           -0.350530299417    -2.464761874313     2.511645403313
    H            0.221984124055    -0.833842929232     2.588642399533
    H           -1.862351516973    -2.906017182774     0.594355128689
    H           -1.327836965066    -2.217855527300    -0.885899342906

  Mulliken Charges: (a.u.)
   Center  Symbol    Alpha    Beta     Spin     Total
       1     C     2.95399  2.95399  0.00000  0.09201
       2     C     3.08163  3.08163  0.00000 -0.16327
       3     C     3.06235  3.06235  0.00000 -0.12469
       4     C     3.05099  3.05099  0.00000 -0.10198
       5     C     3.06241  3.06241  0.00000 -0.12481
       6     C     3.08093  3.08093  0.00000 -0.16185
       7     C     2.72985  2.72985  0.00000  0.54029
       8     H     0.41338  0.41338  0.00000  0.17325
       9     H     0.40487  0.40487  0.00000  0.19027
      10     H     0.40321  0.40321  0.00000  0.19359
      11     H     0.40501  0.40501  0.00000  0.18997
      12     H     0.41594  0.41594  0.00000  0.16811
      13     N     3.86360  3.86360  0.00000 -0.72719
      14     N     3.85994  3.85994  0.00000 -0.71987
      15     H     0.30438  0.30438  0.00000  0.39124
      16     H     0.30017  0.30017  0.00000  0.39965
      17     H     0.30545  0.30545  0.00000  0.38911
      18     H     0.30191  0.30191  0.00000  0.39618

   Total alpha = 32.00000, Total beta = 32.00000, Total charge =  1.00000

*** Psi4 exiting successfully. Buy a developer a beer!
