                              Psi4 1.0.54 Driver

  ==> Input File <==

--------------------------------------------------------------------------
set_num_threads(1)
set_memory(3145728000)

set { reference rks }
set { basis 6-31G* }

molecule MOL {
    1 1
    noreorient
    nocom
    symmetry c1
    C    0.000000   0.000000  -0.177864
    C    0.036678   1.219374   0.524165
    C    0.031764   1.213119   1.915444
    C   -0.000000  -0.000000   2.610107
    C   -0.031764  -1.213119   1.915444
    C   -0.036677  -1.219374   0.524165
    C    0.000000  -0.000000  -1.644734
    H    0.018170   2.164705  -0.010853
    H    0.042402   2.152895   2.457886
    H   -0.000000  -0.000000   3.695756
    H   -0.042402  -2.152895   2.457886
    H   -0.018170  -2.164705  -0.010853
    N   -0.712590  -0.905950  -2.308460
    N    0.712590   0.905950  -2.308461
    H    0.673432   1.006469  -3.315997
    H    1.377190   1.485970  -1.813317
    H   -0.403630  -1.222472  -3.218208
    H   -1.532305  -1.355438  -1.917572
}

set optking { frozen_dihedral = (" 1 7 13 17 ") }

set optking { dynamic_level = 1
 geom_maxiter = 250
 print_trajectory_xyz_file = True }

energy, wfn = optimize('B3LYP-D3', return_wfn=True)

import os
os.chdir(os.environ['HTMD_PSI4_WORKDIR'])

oeprop(wfn, 'DIPOLE', 'QUADRUPOLE', 'MULLIKEN_CHARGES')

with open('psi4out.xyz', 'w') as f:
    f.write('18 ' )
    f.write('%.12f\n' % energy)
    f.write(MOL.save_string_xyz())
--------------------------------------------------------------------------

    Molecular point group: c1
  Charge       = 1
  Multiplicity = 1
  Basis Set: 6-31G*
   => B3LYP-D3 Composite Functional <=
  Basis Set:
  @DF-RKS Final Energy:  -381.46623700461885
    Total Energy =                       -381.4662370046187903
    Molecular point group: c1
  Basis Set: 6-31G*
  Basis Set:
   => B3LYP-D3 Composite Functional <=
  Basis Set: 6-31G*
   => B3LYP-D3 Composite Functional <=
  Basis Set:
  @DF-RKS Final Energy:  -381.46770800365880
    Total Energy =                       -381.4677080036587427
  Basis Set: 6-31G*
  Basis Set:
   => B3LYP-D3 Composite Functional <=
  Basis Set: 6-31G*
   => B3LYP-D3 Composite Functional <=
  Basis Set:
  @DF-RKS Final Energy:  -381.46846051146719
    Total Energy =                       -381.4684605114672422
  Basis Set: 6-31G*
  Basis Set:
   => B3LYP-D3 Composite Functional <=
  Basis Set:
  @DF-RKS Final Energy:  -381.46852327427837
    Total Energy =                       -381.4685232742783683
  Basis Set: 6-31G*
  Basis Set:
   => B3LYP-D3 Composite Functional <=
  Basis Set: 6-31G*
   => B3LYP-D3 Composite Functional <=
  Basis Set:
  @DF-RKS Final Energy:  -381.46853117433352
    Total Energy =                       -381.4685311743336342
  Basis Set: 6-31G*
  Basis Set:
   => B3LYP-D3 Composite Functional <=
  Charge       = 1
  Multiplicity = 1
  Basis Set: 6-31G*
   => B3LYP-D3 Composite Functional <=
  Basis Set:

    Orbital Energies (a.u.)
    -----------------------

    Doubly Occupied:

       1A    -14.568125     2A    -14.563746     3A    -10.496249
       4A    -10.374190     5A    -10.358640     6A    -10.357754
       7A    -10.345573     8A    -10.342240     9A    -10.342081
      10A     -1.182150    11A     -1.089718    12A     -1.015741
      13A     -0.927404    14A     -0.904012    15A     -0.844501
      16A     -0.784854    17A     -0.772172    18A     -0.741560
      19A     -0.732614    20A     -0.687092    21A     -0.670868
      22A     -0.627916    23A     -0.616205    24A     -0.585270
      25A     -0.580765    26A     -0.572136    27A     -0.520277
      28A     -0.507223    29A     -0.499614    30A     -0.471594
      31A     -0.414185    32A     -0.407544

  @DF-RKS Final Energy:  -381.46853215537311

   => Energetics <=

    Nuclear Repulsion Energy =            416.8156061169858617
    One-Electron Energy =               -1328.8134531627581509
    Two-Electron Energy =                 574.9454852244846279
    DFT Exchange-Correlation Energy =     -44.4042160540854240
    Empirical Dispersion Energy =          -0.0119542800000000
    PCM Polarization Energy =               0.0000000000000000
    EFP Energy =                            0.0000000000000000
    Total Energy =                       -381.4685321553729977
    Molecular point group: c1
  Basis Set: 6-31G*
  Basis Set:
   => B3LYP-D3 Composite Functional <=

  -Total Gradient:
     Atom            X                  Y                   Z
    ------   -----------------  -----------------  -----------------
       1        0.003195932159    -0.002497108876    -0.000092368497
       2       -0.000027786010     0.000023427324     0.000054961346
       3        0.000011792271    -0.000004480527    -0.000002017012
       4        0.000029408667     0.000023273770     0.000009501102
       5        0.000004522659    -0.000026567593    -0.000028677659
       6       -0.000032441161     0.000037726107     0.000040738262
       7       -0.003648488354     0.002039559239     0.001040390676
       8       -0.000001045648    -0.000006574189    -0.000003943389
       9       -0.000003101631     0.000000488178     0.000004154465
      10       -0.000017871387     0.000003694345    -0.000001322066
      11       -0.000002761075     0.000001957136    -0.000001366260
      12        0.000002790972    -0.000016734541    -0.000005227188
      13       -0.002521562659     0.004771348016    -0.003518757058
      14       -0.000018424862     0.000075774465    -0.000041093649
      15        0.000007041505    -0.000020141224    -0.000001350808
      16       -0.000008631243    -0.000015088190     0.000001095213
      17        0.003095805863    -0.004320129498     0.002495402132
      18       -0.000066918517    -0.000068502679     0.000019928627

  **** Optimization is complete! (in 6 steps) ****
    Final optimized geometry and variables:
    Molecular point group: c1

    Geometry (in Angstrom), charge = 1, multiplicity = 1:

    C           -0.021296432650     0.013955531481    -0.181978880892
    C            0.039404749082     1.229228635935     0.527923459275
    C            0.048669338010     1.216223038731     1.918364239925
    C            0.003149794917    -0.000826370109     2.606444476489
    C           -0.056549824524    -1.209773440885     1.906039828085
    C           -0.075210655247    -1.208437548120     0.515202228287
    C           -0.018096122105     0.018066235464    -1.645582685653
    H            0.029367121203     2.177037130342    -0.003071893968
    H            0.079047375826     2.152309735503     2.466375569673
    H            0.012694585039    -0.006906420760     3.692074868140
    H           -0.079289913551    -2.151852220469     2.444051020314
    H           -0.079146290808    -2.151724751924    -0.023503416720
    N           -0.722229896575    -0.885138541430    -2.332566947428
    N            0.713651942065     0.909570845501    -2.307822276184
    H            0.653867522119     1.021242221555    -3.313441952336
    H            1.379043089885     1.490051639111    -1.814130118948
    H           -0.429741068920    -1.209844672321    -3.247448783446
    H           -1.362647313767    -1.488652047605    -1.832394734613

  Mulliken Charges: (a.u.)
   Center  Symbol    Alpha    Beta     Spin     Total
       1     C     2.95399  2.95399  0.00000  0.09201
       2     C     3.08163  3.08163  0.00000 -0.16327
       3     C     3.06235  3.06235  0.00000 -0.12469
       4     C     3.05099  3.05099  0.00000 -0.10198
       5     C     3.06241  3.06241  0.00000 -0.12481
       6     C     3.08093  3.08093  0.00000 -0.16185
       7     C     2.72985  2.72985  0.00000  0.54029
       8     H     0.41338  0.41338  0.00000  0.17325
       9     H     0.40487  0.40487  0.00000  0.19027
      10     H     0.40321  0.40321  0.00000  0.19359
      11     H     0.40501  0.40501  0.00000  0.18997
      12     H     0.41594  0.41594  0.00000  0.16811
      13     N     3.86360  3.86360  0.00000 -0.72720
      14     N     3.85994  3.85994  0.00000 -0.71987
      15     H     0.30438  0.30438  0.00000  0.39124
      16     H     0.30017  0.30017  0.00000  0.39965
      17     H     0.30545  0.30545  0.00000  0.38911
      18     H     0.30191  0.30191  0.00000  0.39618

   Total alpha = 32.00000, Total beta = 32.00000, Total charge =  1.00000

*** Psi4 exiting successfully. Buy a developer a beer!
