                               Psi4 1.1 release

  ==> Input File <==

--------------------------------------------------------------------------
set_num_threads( 8 )
memory 2.000000 gb

set { reference rks }
set { basis cc-pVDZ }

molecule MOL {
    0 1
    noreorient
    nocom
    symmetry c1
    O    1.050400   0.042900  -0.048100
    C    2.474100   0.047400  -0.029000
    C    3.002600  -1.068900  -0.932000
    N    4.462700  -1.072400  -1.006800
    H    0.760400   0.728400   0.578000
    H    2.809900  -0.097900   1.003200
    H    2.817400   1.026800  -0.378600
    H    2.581000  -0.963300  -1.938400
    H    2.653800  -2.036400  -0.553400
    H    4.753736  -0.774034  -1.937261
    H    4.794074  -2.031629  -0.905206
}

set optking { frozen_dihedral = (" 2 3 4 10 ") }

energy, wfn = energy('B3LYP-D3', return_wfn=True)

import os
os.chdir(os.environ['HTMD_PSI4_WORKDIR'])

oeprop(wfn, 'DIPOLE', 'QUADRUPOLE', 'MULLIKEN_CHARGES')

with open('psi4out.xyz', 'w') as f:
    f.write('11 ' )
    f.write('%.12f\n' % energy)
    f.write(MOL.save_string_xyz())
--------------------------------------------------------------------------

    Molecular point group: c1

    Geometry (in Angstrom), charge = 0, multiplicity = 1:

       Center              X                  Y                   Z               Mass
    ------------   -----------------  -----------------  -----------------  -----------------
           O          1.050400000000     0.042900000000    -0.048100000000    15.994914619560
           C          2.474100000000     0.047400000000    -0.029000000000    12.000000000000
           C          3.002600000000    -1.068900000000    -0.932000000000    12.000000000000
           N          4.462700000000    -1.072400000000    -1.006800000000    14.003074004780
           H          0.760400000000     0.728400000000     0.578000000000     1.007825032070
           H          2.809900000000    -0.097900000000     1.003200000000     1.007825032070
           H          2.817400000000     1.026800000000    -0.378600000000     1.007825032070
           H          2.581000000000    -0.963300000000    -1.938400000000     1.007825032070
           H          2.653800000000    -2.036400000000    -0.553400000000     1.007825032070
           H          4.753736000000    -0.774034000000    -1.937261000000     1.007825032070
           H          4.794074000000    -2.031629000000    -0.905206000000     1.007825032070

  Charge       = 0
  Multiplicity = 1
  Basis Set: CC-PVDZ
    Blend: CC-PVDZ
   => B3LYP Composite Functional <=
  Basis Set: (CC-PVDZ AUX)
    Blend: CC-PVDZ-JKFIT

    Orbital Energies (a.u.)
    -----------------------

    Doubly Occupied:

       1A    -19.122610     2A    -14.306060     3A    -10.216519
       4A    -10.201608     5A     -1.005050     6A     -0.876990
       7A     -0.709994     8A     -0.591729     9A     -0.501854
      10A     -0.496325    11A     -0.435702    12A     -0.425756
      13A     -0.392914    14A     -0.346128    15A     -0.324132
      16A     -0.256183    17A     -0.235310

  @DF-RKS Final Energy:  -210.39003794027971

   => Energetics <=

    Nuclear Repulsion Energy =            130.2492210534326489
    One-Electron Energy =                -543.5068738966879209
    Two-Electron Energy =                 226.3593940390486807
    DFT Exchange-Correlation Energy =     -23.4870933560731139
    Empirical Dispersion Energy =          -0.0046857800000000
    PCM Polarization Energy =               0.0000000000000000
    EFP Energy =                            0.0000000000000000
    Total Energy =                       -210.3900379402797114

  Mulliken Charges: (a.u.)
   Center  Symbol    Alpha    Beta     Spin     Total
       1     O     4.14136  4.14136  0.00000 -0.28271
       2     C     2.92059  2.92059  0.00000  0.15882
       3     C     2.99777  2.99777  0.00000  0.00445
       4     N     3.58773  3.58773  0.00000 -0.17545
       5     H     0.43026  0.43026  0.00000  0.13948
       6     H     0.50215  0.50215  0.00000 -0.00431
       7     H     0.50385  0.50385  0.00000 -0.00770
       8     H     0.49608  0.49608  0.00000  0.00784
       9     H     0.49326  0.49326  0.00000  0.01348
      10     H     0.46362  0.46362  0.00000  0.07275
      11     H     0.46332  0.46332  0.00000  0.07336

   Total alpha = 17.00000, Total beta = 17.00000, Total charge = -0.00000

*** Psi4 exiting successfully. Buy a developer a beer!
