                               Psi4 1.1 release

  ==> Input File <==

--------------------------------------------------------------------------
set_num_threads(1)
set_memory(4203741184)

set { reference rks }
set { basis cc-pVDZ }

molecule MOL {
    0 1
    noreorient
    nocom
    symmetry c1
    O    1.141000   0.017000   0.083000
    C    2.558000   0.086000  -0.005000
    C    3.192000  -0.789000   1.067000
    O    4.610000  -0.719000   0.979000
    H    0.908377  -0.927166   0.112641
    H    2.874000   1.128000   0.115000
    H    2.871000  -0.243000  -1.001000
    H    2.876000  -1.830000   0.947000
    H    2.879000  -0.459000   2.064000
    H    4.961000  -1.293000   1.682000
}

set optking { frozen_dihedral = (" 3 2 1 5 ") }

energy, wfn = energy('B3LYP-D3', return_wfn=True)

import os
os.chdir(os.environ['HTMD_PSI4_WORKDIR'])

oeprop(wfn, 'DIPOLE', 'QUADRUPOLE', 'MULLIKEN_CHARGES')

with open('psi4out.xyz', 'w') as f:
    f.write('10 ' )
    f.write('%.12f\n' % energy)
    f.write(MOL.save_string_xyz())
--------------------------------------------------------------------------

    Molecular point group: c1

    Geometry (in Angstrom), charge = 0, multiplicity = 1:

       Center              X                  Y                   Z               Mass
    ------------   -----------------  -----------------  -----------------  -----------------
           O          1.141000000000     0.017000000000     0.083000000000    15.994914619560
           C          2.558000000000     0.086000000000    -0.005000000000    12.000000000000
           C          3.192000000000    -0.789000000000     1.067000000000    12.000000000000
           O          4.610000000000    -0.719000000000     0.979000000000    15.994914619560
           H          0.908377000000    -0.927166000000     0.112641000000     1.007825032070
           H          2.874000000000     1.128000000000     0.115000000000     1.007825032070
           H          2.871000000000    -0.243000000000    -1.001000000000     1.007825032070
           H          2.876000000000    -1.830000000000     0.947000000000     1.007825032070
           H          2.879000000000    -0.459000000000     2.064000000000     1.007825032070
           H          4.961000000000    -1.293000000000     1.682000000000     1.007825032070

  Charge       = 0
  Multiplicity = 1
  Basis Set: CC-PVDZ
    Blend: CC-PVDZ
   => B3LYP Composite Functional <=
  Basis Set: (CC-PVDZ AUX)
    Blend: CC-PVDZ-JKFIT

    Orbital Energies (a.u.)
    -----------------------

    Doubly Occupied:

       1A    -19.135843     2A    -19.134592     3A    -10.231393
       4A    -10.227156     5A     -1.023223     6A     -1.011611
       7A     -0.732177     8A     -0.620261     9A     -0.518258
      10A     -0.495105    11A     -0.459967    12A     -0.428291
      13A     -0.398537    14A     -0.348114    15A     -0.324240
      16A     -0.269592    17A     -0.268228

  @DF-RKS Final Energy:  -230.25835759540928

   => Energetics <=

    Nuclear Repulsion Energy =            129.9626843000453675
    One-Electron Energy =                -571.5564057951860377
    Two-Electron Energy =                 235.8779403645977482
    DFT Exchange-Correlation Energy =     -24.5379284248663261
    Empirical Dispersion Energy =          -0.0046480400000000
    PCM Polarization Energy =               0.0000000000000000
    EFP Energy =                            0.0000000000000000
    Total Energy =                       -230.2583575954092794

  Mulliken Charges: (a.u.)
   Center  Symbol    Alpha    Beta     Spin     Total
       1     O     4.13842  4.13842  0.00000 -0.27685
       2     C     2.92446  2.92446  0.00000  0.15109
       3     C     2.95113  2.95113  0.00000  0.09774
       4     O     4.13888  4.13888  0.00000 -0.27777
       5     H     0.43175  0.43175  0.00000  0.13649
       6     H     0.48588  0.48588  0.00000  0.02823
       7     H     0.49695  0.49695  0.00000  0.00611
       8     H     0.50674  0.50674  0.00000 -0.01348
       9     H     0.49774  0.49774  0.00000  0.00453
      10     H     0.42805  0.42805  0.00000  0.14390

   Total alpha = 17.00000, Total beta = 17.00000, Total charge = -0.00000

*** Psi4 exiting successfully. Buy a developer a beer!
