                               Psi4 1.1 release

  ==> Input File <==

--------------------------------------------------------------------------
set_num_threads(1)
set_memory(3145728000)

set { reference rks }
set { basis 6-31G* }

molecule MOL {
    1 1
    noreorient
    nocom
    symmetry c1
    C    0.000000   0.000000  -0.177864
    C    0.036678   1.219374   0.524165
    C    0.031764   1.213119   1.915444
    C   -0.000000  -0.000000   2.610107
    C   -0.031764  -1.213119   1.915444
    C   -0.036677  -1.219374   0.524165
    C    0.000000  -0.000000  -1.644734
    H    0.018170   2.164705  -0.010853
    H    0.042402   2.152895   2.457886
    H   -0.000000  -0.000000   3.695756
    H   -0.042402  -2.152895   2.457886
    H   -0.018170  -2.164705  -0.010853
    N   -0.767100  -0.860283  -2.308460
    N    0.767100   0.860283  -2.308461
    H    0.734216   0.963026  -3.315997
    H    1.466203   1.398215  -1.813317
    H   -1.466203  -1.398215  -1.813316
    H   -0.734216  -0.963026  -3.315997
}

set optking { frozen_dihedral = (" 2 1 7 13 ") }

set optking { dynamic_level = 1
 geom_maxiter = 250
 print_trajectory_xyz_file = True }

energy, wfn = optimize('B3LYP-D3', return_wfn=True)

import os
os.chdir(os.environ['HTMD_PSI4_WORKDIR'])

oeprop(wfn, 'DIPOLE', 'QUADRUPOLE', 'MULLIKEN_CHARGES')

with open('psi4out.xyz', 'w') as f:
    f.write('18 ' )
    f.write('%.12f\n' % energy)
    f.write(MOL.save_string_xyz())
--------------------------------------------------------------------------

    Molecular point group: c1
  Charge       = 1
  Multiplicity = 1
  Basis Set: 6-31G*
    Blend: 6-31G*
   => B3LYP Composite Functional <=
  Basis Set: (6-31G* AUX)
    Blend: CC-PVDZ-JKFIT
  @DF-RKS Final Energy:  -381.47041208960462
    Total Energy =                       -381.4704120896046220
    Molecular point group: c1
  Basis Set: 6-31G*
    Blend: 6-31G*
  Basis Set: (6-31G* AUX)
    Blend: CC-PVDZ-JKFIT
   => B3LYP Composite Functional <=
  Basis Set: 6-31G*
    Blend: 6-31G*
   => B3LYP Composite Functional <=
  Basis Set: (6-31G* AUX)
    Blend: CC-PVDZ-JKFIT
  @DF-RKS Final Energy:  -381.47043420163482
    Total Energy =                       -381.4704342016348733
  Basis Set: 6-31G*
    Blend: 6-31G*
  Basis Set: (6-31G* AUX)
   => B3LYP Composite Functional <=
  Basis Set: (6-31G* AUX)
    Blend: CC-PVDZ-JKFIT
  @DF-RKS Final Energy:  -381.47044845691158
    Total Energy =                       -381.4704484569115834
  Basis Set: 6-31G*
    Blend: 6-31G*
  Basis Set: (6-31G* AUX)
    Blend: CC-PVDZ-JKFIT
   => B3LYP Composite Functional <=
  Charge       = 1
  Multiplicity = 1
  Basis Set: 6-31G*
    Blend: 6-31G*
   => B3LYP Composite Functional <=
  Basis Set: (6-31G* AUX)
    Blend: CC-PVDZ-JKFIT

    Orbital Energies (a.u.)
    -----------------------

    Doubly Occupied:

       1A    -14.568541     2A    -14.568492     3A    -10.497351
       4A    -10.372760     5A    -10.355664     6A    -10.355550
       7A    -10.342365     8A    -10.340001     9A    -10.339938
      10A     -1.184154    11A     -1.092454    12A     -1.013897
      13A     -0.926285    14A     -0.901721    15A     -0.845257
      16A     -0.785795    17A     -0.772935    18A     -0.742599
      19A     -0.732401    20A     -0.688916    21A     -0.668976
      22A     -0.624767    23A     -0.617895    24A     -0.585913
      25A     -0.578597    26A     -0.572434    27A     -0.518252
      28A     -0.504878    29A     -0.497654    30A     -0.473238
      31A     -0.411283    32A     -0.405261

  @DF-RKS Final Energy:  -381.47044908239508

   => Energetics <=

    Nuclear Repulsion Energy =            416.9181657979421516
    One-Electron Energy =               -1329.0568839049060443
    Two-Electron Energy =                 575.0861068898637996
    DFT Exchange-Correlation Energy =     -44.4058779752949917
    Empirical Dispersion Energy =          -0.0119598900000000
    PCM Polarization Energy =               0.0000000000000000
    EFP Energy =                            0.0000000000000000
    Total Energy =                       -381.4704490823950778
    Molecular point group: c1
  Basis Set: 6-31G*
    Blend: 6-31G*
  Basis Set: (6-31G* AUX)
    Blend: CC-PVDZ-JKFIT
   => B3LYP Composite Functional <=

  -Total Gradient:
     Atom            X                  Y                   Z
    ------   -----------------  -----------------  -----------------
       1        0.000866304908     0.000279149184    -0.000019253463
       2       -0.000820790716     0.000039002849     0.000015845283
       3        0.000019359984    -0.000011295890    -0.000004931692
       4       -0.000023840073    -0.000001354887    -0.000006268101
       5       -0.000003263333     0.000002725633     0.000004195844
       6       -0.000014680566    -0.000036162643     0.000033081414
       7        0.000645183098    -0.000901042208     0.000007676240
       8        0.000029739602    -0.000015540413    -0.000020933599
       9       -0.000010507401     0.000000010615    -0.000000074621
      10        0.000008474698     0.000001429945    -0.000003988615
      11        0.000011926215     0.000001625868    -0.000001543755
      12        0.000030274237     0.000011228618     0.000006464168
      13       -0.000651485984     0.000562978761    -0.000026775042
      14       -0.000058429043     0.000013082921     0.000000093248
      15       -0.000002104792     0.000004947728    -0.000001262235
      16       -0.000014009546     0.000000017385     0.000013311543
      17       -0.000005259971     0.000036228210    -0.000013387348
      18       -0.000007451484     0.000010196530    -0.000002330478

  **** Optimization is complete! (in 4 steps) ****
    Final optimized geometry and variables:
    Molecular point group: c1

    Geometry (in Angstrom), charge = 1, multiplicity = 1:

    C            0.012791915655    -0.002660995407    -0.177899337256
    C            0.047669605294     1.217705583731     0.521701421712
    C            0.033200720589     1.212448402056     1.913156199517
    C           -0.007222410572    -0.000001583267     2.608427881150
    C           -0.039599600780    -1.213846827221     1.914959013239
    C           -0.037174022070    -1.221525091724     0.523535122052
    C            0.007604072667    -0.002428722050    -1.645330153749
    H            0.040126426548     2.161454196651    -0.016339000865
    H            0.043057306937     2.152578840155     2.455041462054
    H           -0.014094410796     0.001038202380     3.694056961977
    H           -0.058028394827    -2.152906573901     2.458462083714
    H           -0.024557831728    -2.166337990926    -0.012667583650
    N           -0.759194137149    -0.865760242089    -2.304380470193
    N            0.759535796345     0.870316214417    -2.309223062352
    H            0.721229652258     0.977762025767    -3.316202991299
    H            1.450091914508     1.418262157433    -1.812776802338
    H           -1.441421899654    -1.417904729046    -1.801213554902
    H           -0.734013703223    -0.968192866959    -3.312306188811

  Mulliken Charges: (a.u.)
   Center  Symbol    Alpha    Beta     Spin     Total
       1     C     2.96010  2.96010  0.00000  0.07979
       2     C     3.08082  3.08082  0.00000 -0.16165
       3     C     3.06244  3.06244  0.00000 -0.12488
       4     C     3.05158  3.05158  0.00000 -0.10316
       5     C     3.06265  3.06265  0.00000 -0.12529
       6     C     3.08166  3.08166  0.00000 -0.16332
       7     C     2.72409  2.72409  0.00000  0.55181
       8     H     0.41402  0.41402  0.00000  0.17197
       9     H     0.40554  0.40554  0.00000  0.18892
      10     H     0.40406  0.40406  0.00000  0.19187
      11     H     0.40554  0.40554  0.00000  0.18892
      12     H     0.41392  0.41392  0.00000  0.17215
      13     N     3.86159  3.86159  0.00000 -0.72319
      14     N     3.86195  3.86195  0.00000 -0.72390
      15     H     0.30566  0.30566  0.00000  0.38867
      16     H     0.29937  0.29937  0.00000  0.40126
      17     H     0.29933  0.29933  0.00000  0.40134
      18     H     0.30566  0.30566  0.00000  0.38868

   Total alpha = 32.00000, Total beta = 32.00000, Total charge =  1.00000

*** Psi4 exiting successfully. Buy a developer a beer!
