                               Psi4 1.1 release

  ==> Input File <==

--------------------------------------------------------------------------
set {
	reference rks
	basis 6-31G*
}

set_num_threads( 8 )
memory 2 gb

molecule MOL {
1 1

C	 -0.000000	 -0.000000	 -0.191639
C	 -0.038588	 1.219315	 0.510391
C	 -0.043106	 1.212770	 1.901670
C	 -0.000000	 0.000000	 2.596333
C	 0.043106	 -1.212770	 1.901670
C	 0.038587	 -1.219315	 0.510391
C	 -0.000000	 -0.000000	 -1.658508
H	 -0.115355	 2.161706	 -0.024627
H	 -0.090441	 2.151412	 2.444112
H	 -0.000000	 0.000000	 3.681982
H	 0.090442	 -2.151412	 2.444112
H	 0.115355	 -2.161706	 -0.024627
N	 -0.712589	 -0.905950	 -2.322235
N	 0.712590	 0.905950	 -2.322235
H	 0.673432	 1.006470	 -3.329771
H	 1.377190	 1.485970	 -1.827091
H	 -1.377189	 -1.485970	 -1.827091
H	 -0.673431	 -1.006470	 -3.329771

	symmetry c1
}
set optking { dynamic_level = 1 }
set optking {
	frozen_dihedral = ("
		2 1 7 13
	")
}

ee,wfn = optimize('b3lyp-d3', return_wfn=True)
oeprop( wfn, 'DIPOLE', 'QUADRUPOLE', 'MULLIKEN_CHARGES')
f=open( 'psi4out.xyz', 'w' )
f.write( "18  " )
f.write( str(ee) + "\n" )
f.write( MOL.save_string_xyz() )
f.close()
--------------------------------------------------------------------------

    Molecular point group: c1
  Charge       = 1
  Multiplicity = 1
  Basis Set: 6-31G*
    Blend: 6-31G*
   => B3LYP Composite Functional <=
  Basis Set: (6-31G* AUX)
    Blend: CC-PVDZ-JKFIT
  @DF-RKS Final Energy:  -381.47041208406495
    Total Energy =                       -381.4704120840648898
    Molecular point group: c1
  Basis Set: 6-31G*
    Blend: 6-31G*
  Basis Set: (6-31G* AUX)
    Blend: CC-PVDZ-JKFIT
   => B3LYP Composite Functional <=
  Basis Set: 6-31G*
    Blend: 6-31G*
   => B3LYP Composite Functional <=
  Basis Set: (6-31G* AUX)
    Blend: CC-PVDZ-JKFIT
  @DF-RKS Final Energy:  -381.47043419925564
    Total Energy =                       -381.4704341992556920
  Basis Set: 6-31G*
    Blend: 6-31G*
  Basis Set: (6-31G* AUX)
   => B3LYP Composite Functional <=
  Basis Set: (6-31G* AUX)
    Blend: CC-PVDZ-JKFIT
  @DF-RKS Final Energy:  -381.47044845441263
    Total Energy =                       -381.4704484544126331
  Basis Set: 6-31G*
    Blend: 6-31G*
  Basis Set: (6-31G* AUX)
    Blend: CC-PVDZ-JKFIT
   => B3LYP Composite Functional <=
  Charge       = 1
  Multiplicity = 1
  Basis Set: 6-31G*
    Blend: 6-31G*
   => B3LYP Composite Functional <=
  Basis Set: (6-31G* AUX)
    Blend: CC-PVDZ-JKFIT

    Orbital Energies (a.u.)
    -----------------------

    Doubly Occupied:

       1A    -14.568541     2A    -14.568492     3A    -10.497351
       4A    -10.372760     5A    -10.355664     6A    -10.355550
       7A    -10.342365     8A    -10.340001     9A    -10.339938
      10A     -1.184154    11A     -1.092454    12A     -1.013897
      13A     -0.926285    14A     -0.901721    15A     -0.845257
      16A     -0.785795    17A     -0.772935    18A     -0.742599
      19A     -0.732401    20A     -0.688916    21A     -0.668977
      22A     -0.624767    23A     -0.617895    24A     -0.585913
      25A     -0.578597    26A     -0.572434    27A     -0.518252
      28A     -0.504878    29A     -0.497654    30A     -0.473238
      31A     -0.411283    32A     -0.405261

  @DF-RKS Final Energy:  -381.47044908024276

   => Energetics <=

    Nuclear Repulsion Energy =            416.9181859087469775
    One-Electron Energy =               -1329.0569213286701142
    Two-Electron Energy =                 575.0861247896770010
    DFT Exchange-Correlation Energy =     -44.4058785599966370
    Empirical Dispersion Energy =          -0.0119598900000000
    PCM Polarization Energy =               0.0000000000000000
    EFP Energy =                            0.0000000000000000
    Total Energy =                       -381.4704490802427586
    Molecular point group: c1
  Basis Set: 6-31G*
    Blend: 6-31G*
  Basis Set: (6-31G* AUX)
    Blend: CC-PVDZ-JKFIT
   => B3LYP Composite Functional <=

  -Total Gradient:
     Atom            X                  Y                   Z
    ------   -----------------  -----------------  -----------------
       1        0.000847447603     0.000331971745    -0.000019069610
       2       -0.000821654628    -0.000011668793     0.000015767155
       3        0.000020026578    -0.000010139668    -0.000004944059
       4       -0.000023712453    -0.000002909610    -0.000006286120
       5       -0.000003423206     0.000002590321     0.000004080271
       6       -0.000012424597    -0.000036992055     0.000033099590
       7        0.000699521651    -0.000859609582     0.000007547277
       8        0.000030646420    -0.000013745164    -0.000020893504
       9       -0.000010491141    -0.000000605261    -0.000000066304
      10        0.000008371368     0.000001961273    -0.000004004366
      11        0.000011804086     0.000002379783    -0.000001552395
      12        0.000029517087     0.000013197491     0.000006517966
      13       -0.000684979264     0.000521775619    -0.000026699070
      14       -0.000059131073     0.000009446555     0.000000088140
      15       -0.000002407005     0.000004808868    -0.000001210093
      16       -0.000014024927    -0.000000887264     0.000013283006
      17       -0.000007416307     0.000035899218    -0.000013440395
      18       -0.000008058363     0.000009725465    -0.000002298691

  **** Optimization is complete! (in 4 steps) ****
    Final optimized geometry and variables:
    Molecular point group: c1

    Geometry (in Angstrom), charge = 1, multiplicity = 1:

    C            0.011302607879    -0.001519878433    -0.191287459553
    C           -0.029144386731     1.218674750041     0.508313157130
    C           -0.043261512669     1.212535204188     1.899767900666
    C           -0.008837697140    -0.000099906723     2.595039525517
    C            0.033702824624    -1.213631332007     1.901570628906
    C            0.036597261194    -1.221145345087     0.510146850572
    C            0.006110369482    -0.001608106869    -1.658718390950
    H           -0.094872621242     2.160161803492    -0.029727249455
    H           -0.091400085065     2.151484141640     2.441653147100
    H           -0.015760652671     0.000514150842     3.680668553063
    H            0.073219663702    -2.152040239501     2.445073654801
    H            0.107454725380    -2.163381706901    -0.026055973778
    N           -0.705988878965    -0.910582959248    -2.317768610571
    N            0.702790668712     0.915845643813    -2.322611297042
    H            0.657931252822     1.020724914251    -3.329591134311
    H            1.358241727677     1.505333782127    -1.826165036719
    H           -1.352868391087    -1.503748137525    -1.814601670605
    H           -0.674539396979    -1.011267975662    -3.325694280820

  Mulliken Charges: (a.u.)
   Center  Symbol    Alpha    Beta     Spin     Total
       1     C     2.96010  2.96010  0.00000  0.07979
       2     C     3.08082  3.08082  0.00000 -0.16165
       3     C     3.06244  3.06244  0.00000 -0.12488
       4     C     3.05158  3.05158  0.00000 -0.10316
       5     C     3.06265  3.06265  0.00000 -0.12529
       6     C     3.08166  3.08166  0.00000 -0.16332
       7     C     2.72409  2.72409  0.00000  0.55181
       8     H     0.41402  0.41402  0.00000  0.17197
       9     H     0.40554  0.40554  0.00000  0.18892
      10     H     0.40406  0.40406  0.00000  0.19187
      11     H     0.40554  0.40554  0.00000  0.18892
      12     H     0.41392  0.41392  0.00000  0.17215
      13     N     3.86159  3.86159  0.00000 -0.72319
      14     N     3.86195  3.86195  0.00000 -0.72390
      15     H     0.30566  0.30566  0.00000  0.38867
      16     H     0.29937  0.29937  0.00000  0.40126
      17     H     0.29933  0.29933  0.00000  0.40134
      18     H     0.30566  0.30566  0.00000  0.38868

   Total alpha = 32.00000, Total beta = 32.00000, Total charge =  1.00000

*** Psi4 exiting successfully. Buy a developer a beer!
