                               Psi4 1.1 release

  ==> Input File <==

--------------------------------------------------------------------------
set_num_threads(1)
set_memory(4203741184)

set { reference rks }
set { basis cc-pVDZ }

molecule MOL {
    0 1
    noreorient
    nocom
    symmetry c1
    O    1.141000   0.017000   0.083000
    C    2.558000   0.086000  -0.005000
    C    3.192000  -0.789000   1.067000
    O    4.448220  -0.248676   1.458573
    H    0.789000   0.590000  -0.620000
    H    2.874000   1.128000   0.115000
    H    2.871000  -0.243000  -1.001000
    H    3.340292  -1.806390   0.691681
    H    2.539703  -0.850100   1.945438
    H    4.806451  -0.843373   2.140402
}

set optking { frozen_dihedral = (" 1 2 3 4 ") }

energy, wfn = energy('B3LYP-D3', return_wfn=True)

import os
os.chdir(os.environ['HTMD_PSI4_WORKDIR'])

oeprop(wfn, 'DIPOLE', 'QUADRUPOLE', 'MULLIKEN_CHARGES')

with open('psi4out.xyz', 'w') as f:
    f.write('10 ' )
    f.write('%.12f\n' % energy)
    f.write(MOL.save_string_xyz())
--------------------------------------------------------------------------

    Molecular point group: c1

    Geometry (in Angstrom), charge = 0, multiplicity = 1:

       Center              X                  Y                   Z               Mass
    ------------   -----------------  -----------------  -----------------  -----------------
           O          1.141000000000     0.017000000000     0.083000000000    15.994914619560
           C          2.558000000000     0.086000000000    -0.005000000000    12.000000000000
           C          3.192000000000    -0.789000000000     1.067000000000    12.000000000000
           O          4.448220000000    -0.248676000000     1.458573000000    15.994914619560
           H          0.789000000000     0.590000000000    -0.620000000000     1.007825032070
           H          2.874000000000     1.128000000000     0.115000000000     1.007825032070
           H          2.871000000000    -0.243000000000    -1.001000000000     1.007825032070
           H          3.340292000000    -1.806390000000     0.691681000000     1.007825032070
           H          2.539703000000    -0.850100000000     1.945438000000     1.007825032070
           H          4.806451000000    -0.843373000000     2.140402000000     1.007825032070

  Charge       = 0
  Multiplicity = 1
  Basis Set: CC-PVDZ
    Blend: CC-PVDZ
   => B3LYP Composite Functional <=
  Basis Set: (CC-PVDZ AUX)
    Blend: CC-PVDZ-JKFIT

    Orbital Energies (a.u.)
    -----------------------

    Doubly Occupied:

       1A    -19.130732     2A    -19.130694     3A    -10.225750
       4A    -10.225558     5A     -1.018357     6A     -1.007584
       7A     -0.732418     8A     -0.603436     9A     -0.524755
      10A     -0.493246    11A     -0.457370    12A     -0.411846
      13A     -0.398094    14A     -0.349063    15A     -0.319822
      16A     -0.264549    17A     -0.260827

  @DF-RKS Final Energy:  -230.25518286986687

   => Energetics <=

    Nuclear Repulsion Energy =            129.6184739326236297
    One-Electron Energy =                -571.0054228048543337
    Two-Electron Energy =                 235.6764845619981656
    DFT Exchange-Correlation Energy =     -24.5403882096342905
    Empirical Dispersion Energy =          -0.0043303500000000
    PCM Polarization Energy =               0.0000000000000000
    EFP Energy =                            0.0000000000000000
    Total Energy =                       -230.2551828698668714

  Mulliken Charges: (a.u.)
   Center  Symbol    Alpha    Beta     Spin     Total
       1     O     4.14053  4.14053  0.00000 -0.28107
       2     C     2.93531  2.93531  0.00000  0.12938
       3     C     2.93548  2.93548  0.00000  0.12904
       4     O     4.14076  4.14076  0.00000 -0.28153
       5     H     0.42846  0.42846  0.00000  0.14307
       6     H     0.49609  0.49609  0.00000  0.00782
       7     H     0.49954  0.49954  0.00000  0.00091
       8     H     0.49941  0.49941  0.00000  0.00119
       9     H     0.49600  0.49600  0.00000  0.00800
      10     H     0.42841  0.42841  0.00000  0.14318

   Total alpha = 17.00000, Total beta = 17.00000, Total charge =  0.00000

*** Psi4 exiting successfully. Buy a developer a beer!
