                               Psi4 1.1 release

  ==> Input File <==

--------------------------------------------------------------------------
set {
	reference rks
	basis 6-31G*
}

set_num_threads( 8 )
memory 2 gb

molecule MOL {
1 1

C	 -0.000000	 -0.000000	 -0.191639
C	 -0.173731	 -1.207492	 0.510391
C	 -0.168145	 -1.201830	 1.901670
C	 -0.000000	 0.000000	 2.596333
C	 0.168145	 1.201830	 1.901670
C	 0.173731	 1.207491	 0.510391
C	 -0.000000	 -0.000000	 -1.658508
H	 -0.261774	 -2.148896	 -0.024627
H	 -0.284522	 -2.134432	 2.444112
H	 -0.000000	 0.000000	 3.681982
H	 0.284521	 2.134433	 2.444112
H	 0.261774	 2.148896	 -0.024627
N	 -0.712589	 -0.905950	 -2.322235
N	 0.712590	 0.905950	 -2.322235
H	 0.673432	 1.006470	 -3.329771
H	 1.377190	 1.485970	 -1.827091
H	 -1.377189	 -1.485970	 -1.827091
H	 -0.673431	 -1.006470	 -3.329771

	symmetry c1
}
set optking { dynamic_level = 1 }
set optking {
	frozen_dihedral = ("
		2 1 7 13
	")
}

ee,wfn = optimize('b3lyp-d3', return_wfn=True)
oeprop( wfn, 'DIPOLE', 'QUADRUPOLE', 'MULLIKEN_CHARGES')
f=open( 'psi4out.xyz', 'w' )
f.write( "18  " )
f.write( str(ee) + "\n" )
f.write( MOL.save_string_xyz() )
f.close()
--------------------------------------------------------------------------

    Molecular point group: c1
  Charge       = 1
  Multiplicity = 1
  Basis Set: 6-31G*
    Blend: 6-31G*
   => B3LYP Composite Functional <=
  Basis Set: (6-31G* AUX)
    Blend: CC-PVDZ-JKFIT
  @DF-RKS Final Energy:  -381.47019541452624
    Total Energy =                       -381.4701954145263016
    Molecular point group: c1
  Basis Set: 6-31G*
    Blend: 6-31G*
  Basis Set: (6-31G* AUX)
    Blend: CC-PVDZ-JKFIT
   => B3LYP Composite Functional <=
  Basis Set: 6-31G*
    Blend: 6-31G*
   => B3LYP Composite Functional <=
  Basis Set: (6-31G* AUX)
    Blend: CC-PVDZ-JKFIT
  @DF-RKS Final Energy:  -381.47025636531185
    Total Energy =                       -381.4702563653118546
  Basis Set: 6-31G*
    Blend: 6-31G*
  Basis Set: (6-31G* AUX)
  @DF-RKS Final Energy:  -381.47031260453144
    Total Energy =                       -381.4703126045313866
   => B3LYP Composite Functional <=
  Basis Set: (6-31G* AUX)
    Blend: CC-PVDZ-JKFIT
  @DF-RKS Final Energy:  -381.47031561141921
    Total Energy =                       -381.4703156114192097
  Basis Set: 6-31G*
    Blend: 6-31G*
  Basis Set: (6-31G* AUX)
    Blend: CC-PVDZ-JKFIT
   => B3LYP Composite Functional <=
  Charge       = 1
  Multiplicity = 1
  Basis Set: 6-31G*
    Blend: 6-31G*
   => B3LYP Composite Functional <=
  Basis Set: (6-31G* AUX)
    Blend: CC-PVDZ-JKFIT

    Orbital Energies (a.u.)
    -----------------------

    Doubly Occupied:

       1A    -14.567274     2A    -14.567239     3A    -10.496990
       4A    -10.373938     5A    -10.357121     6A    -10.356940
       7A    -10.343972     8A    -10.341077     9A    -10.341021
      10A     -1.183395    11A     -1.091156    12A     -1.014862
      13A     -0.927117    14A     -0.902969    15A     -0.845734
      16A     -0.785611    17A     -0.774168    18A     -0.740049
      19A     -0.733856    20A     -0.688825    21A     -0.669161
      22A     -0.626800    23A     -0.615914    24A     -0.588978
      25A     -0.579731    26A     -0.573555    27A     -0.518382
      28A     -0.506470    29A     -0.498742    30A     -0.472409
      31A     -0.412283    32A     -0.406370

  @DF-RKS Final Energy:  -381.47031613447660

   => Energetics <=

    Nuclear Repulsion Energy =            416.9151039986639375
    One-Electron Energy =               -1329.0186682132116402
    Two-Electron Energy =                 575.0513383802210683
    DFT Exchange-Correlation Energy =     -44.4062286701498792
    Empirical Dispersion Energy =          -0.0118616300000000
    PCM Polarization Energy =               0.0000000000000000
    EFP Energy =                            0.0000000000000000
    Total Energy =                       -381.4703161344765476
    Molecular point group: c1
  Basis Set: 6-31G*
    Blend: 6-31G*
  Basis Set: (6-31G* AUX)
    Blend: CC-PVDZ-JKFIT
   => B3LYP Composite Functional <=

  -Total Gradient:
     Atom            X                  Y                   Z
    ------   -----------------  -----------------  -----------------
       1        0.002752687581    -0.000798438358    -0.000043969124
       2       -0.001498191653     0.000250555045    -0.000017374263
       3        0.000008033417    -0.000000107600     0.000005884264
       4        0.000012326323     0.000000213432     0.000011695605
       5        0.000000773784     0.000007682936     0.000008209739
       6       -0.000004909220    -0.000001768346    -0.000019032719
       7       -0.002514892219     0.001502766921     0.000023626512
       8       -0.000004587988    -0.000005330100    -0.000006842503
       9       -0.000001380515     0.000000034474    -0.000004992050
      10       -0.000007917130     0.000002952360    -0.000002147445
      11        0.000000832592    -0.000003091254    -0.000003549299
      12        0.000000495897    -0.000004142838     0.000011015155
      13        0.001233014279    -0.000919785870     0.000020479510
      14        0.000018264550    -0.000004869780     0.000007887749
      15       -0.000001848562     0.000006415005    -0.000001287584
      16       -0.000021349968    -0.000015446787    -0.000016240650
      17        0.000017592739    -0.000015256222     0.000005731157
      18        0.000010104283    -0.000004909055    -0.000001940730

  **** Optimization is complete! (in 5 steps) ****
    Final optimized geometry and variables:
    Molecular point group: c1

    Geometry (in Angstrom), charge = 1, multiplicity = 1:

    C            0.013212183766    -0.001602907600    -0.192061436710
    C           -0.158677816714    -1.208700977558     0.512225871741
    C           -0.162760152177    -1.202509727694     1.903095697926
    C           -0.008665310187     0.000688222633     2.598742298642
    C            0.151618938425     1.203388093216     1.904022643340
    C            0.162611326415     1.208085169323     0.513056183161
    C           -0.000187393709     0.003043231520    -1.658275503664
    H           -0.229750567593    -2.153819787911    -0.018598954903
    H           -0.275774568200    -2.135921774756     2.444814208483
    H           -0.015447791705     0.001160301938     3.684368490815
    H            0.254252490784     2.137804165540     2.446065149629
    H            0.235080178238     2.153033462001    -0.017863591579
    N           -0.721319862318    -0.896370380263    -2.323226798139
    N            0.726187375601     0.893858331522    -2.329037392403
    H            0.681580772612     0.990709314796    -3.336531653018
    H            1.412948602430     1.456256787421    -1.844435875212
    H           -1.408605654694    -1.455548407216    -1.835586100154
    H           -0.688001078988    -0.987241240503    -3.331741504871

  Mulliken Charges: (a.u.)
   Center  Symbol    Alpha    Beta     Spin     Total
       1     C     2.95187  2.95187  0.00000  0.09627
       2     C     3.08376  3.08376  0.00000 -0.16752
       3     C     3.06247  3.06247  0.00000 -0.12495
       4     C     3.05134  3.05134  0.00000 -0.10268
       5     C     3.06215  3.06215  0.00000 -0.12431
       6     C     3.08330  3.08330  0.00000 -0.16660
       7     C     2.71795  2.71795  0.00000  0.56409
       8     H     0.41467  0.41467  0.00000  0.17065
       9     H     0.40529  0.40529  0.00000  0.18941
      10     H     0.40358  0.40358  0.00000  0.19284
      11     H     0.40529  0.40529  0.00000  0.18943
      12     H     0.41487  0.41487  0.00000  0.17027
      13     N     3.86617  3.86617  0.00000 -0.73234
      14     N     3.86545  3.86545  0.00000 -0.73089
      15     H     0.30577  0.30577  0.00000  0.38846
      16     H     0.30002  0.30002  0.00000  0.39996
      17     H     0.30029  0.30029  0.00000  0.39943
      18     H     0.30576  0.30576  0.00000  0.38847

   Total alpha = 32.00000, Total beta = 32.00000, Total charge =  1.00000

*** Psi4 exiting successfully. Buy a developer a beer!
