                               Psi4 1.1 release

  ==> Input File <==

--------------------------------------------------------------------------
set_num_threads(1)
set_memory(4203741184)

set { reference rks }
set { basis cc-pVDZ }

molecule MOL {
    0 1
    noreorient
    nocom
    symmetry c1
    O    1.141000   0.017000   0.083000
    C    2.558000   0.086000  -0.005000
    C    3.192000  -0.789000   1.067000
    O    4.536109  -1.094796   0.715963
    H    0.789000   0.590000  -0.620000
    H    2.874000   1.128000   0.115000
    H    2.871000  -0.243000  -1.001000
    H    2.630019  -1.721234   1.181256
    H    3.183440  -0.274517   2.034529
    H    4.890304  -1.652229   1.430597
}

set optking { frozen_dihedral = (" 1 2 3 4 ") }

energy, wfn = energy('B3LYP-D3', return_wfn=True)

import os
os.chdir(os.environ['HTMD_PSI4_WORKDIR'])

oeprop(wfn, 'DIPOLE', 'QUADRUPOLE', 'MULLIKEN_CHARGES')

with open('psi4out.xyz', 'w') as f:
    f.write('10 ' )
    f.write('%.12f\n' % energy)
    f.write(MOL.save_string_xyz())
--------------------------------------------------------------------------

    Molecular point group: c1

    Geometry (in Angstrom), charge = 0, multiplicity = 1:

       Center              X                  Y                   Z               Mass
    ------------   -----------------  -----------------  -----------------  -----------------
           O          1.141000000000     0.017000000000     0.083000000000    15.994914619560
           C          2.558000000000     0.086000000000    -0.005000000000    12.000000000000
           C          3.192000000000    -0.789000000000     1.067000000000    12.000000000000
           O          4.536109000000    -1.094796000000     0.715963000000    15.994914619560
           H          0.789000000000     0.590000000000    -0.620000000000     1.007825032070
           H          2.874000000000     1.128000000000     0.115000000000     1.007825032070
           H          2.871000000000    -0.243000000000    -1.001000000000     1.007825032070
           H          2.630019000000    -1.721234000000     1.181256000000     1.007825032070
           H          3.183440000000    -0.274517000000     2.034529000000     1.007825032070
           H          4.890304000000    -1.652229000000     1.430597000000     1.007825032070

  Charge       = 0
  Multiplicity = 1
  Basis Set: CC-PVDZ
    Blend: CC-PVDZ
   => B3LYP Composite Functional <=
  Basis Set: (CC-PVDZ AUX)
    Blend: CC-PVDZ-JKFIT

    Orbital Energies (a.u.)
    -----------------------

    Doubly Occupied:

       1A    -19.131266     2A    -19.131220     3A    -10.226060
       4A    -10.225865     5A     -1.018635     6A     -1.008145
       7A     -0.732377     8A     -0.603550     9A     -0.525468
      10A     -0.488202    11A     -0.464280    12A     -0.412077
      13A     -0.396405    14A     -0.349710    15A     -0.319541
      16A     -0.264310    17A     -0.262215

  @DF-RKS Final Energy:  -230.25625739986762

   => Energetics <=

    Nuclear Repulsion Energy =            129.5209717852503104
    One-Electron Energy =                -570.8025665448799373
    Two-Electron Energy =                 235.5692715184105737
    DFT Exchange-Correlation Energy =     -24.5395632486485766
    Empirical Dispersion Energy =          -0.0043709100000000
    PCM Polarization Energy =               0.0000000000000000
    EFP Energy =                            0.0000000000000000
    Total Energy =                       -230.2562573998676214

  Mulliken Charges: (a.u.)
   Center  Symbol    Alpha    Beta     Spin     Total
       1     O     4.14050  4.14050  0.00000 -0.28100
       2     C     2.93583  2.93583  0.00000  0.12835
       3     C     2.93596  2.93596  0.00000  0.12809
       4     O     4.14072  4.14072  0.00000 -0.28143
       5     H     0.42785  0.42785  0.00000  0.14430
       6     H     0.49884  0.49884  0.00000  0.00231
       7     H     0.49694  0.49694  0.00000  0.00612
       8     H     0.49683  0.49683  0.00000  0.00634
       9     H     0.49875  0.49875  0.00000  0.00251
      10     H     0.42779  0.42779  0.00000  0.14442

   Total alpha = 17.00000, Total beta = 17.00000, Total charge = -0.00000

*** Psi4 exiting successfully. Buy a developer a beer!
