                               Psi4 1.1 release

  ==> Input File <==

--------------------------------------------------------------------------
set {
	reference rks
	basis 6-31G*
}

set_num_threads( 8 )
memory 2 gb

molecule MOL {
1 1

C	 -0.000000	 -0.000000	 -0.191639
C	 -0.380770	 -1.158979	 0.510391
C	 -0.374286	 -1.154374	 1.901670
C	 -0.000000	 0.000000	 2.596333
C	 0.374286	 1.154374	 1.901670
C	 0.380771	 1.158979	 0.510391
C	 -0.000000	 -0.000000	 -1.658508
H	 -0.630949	 -2.070792	 -0.024627
H	 -0.650840	 -2.052599	 2.444112
H	 -0.000000	 0.000000	 3.681982
H	 0.650839	 2.052599	 2.444112
H	 0.630949	 2.070792	 -0.024627
N	 -0.712589	 -0.905950	 -2.322235
N	 0.712590	 0.905950	 -2.322235
H	 0.673432	 1.006470	 -3.329771
H	 1.377190	 1.485970	 -1.827091
H	 -1.377189	 -1.485970	 -1.827091
H	 -0.673431	 -1.006470	 -3.329771

	symmetry c1
}
set optking { dynamic_level = 1 }
set optking {
	frozen_dihedral = ("
		2 1 7 13
	")
}

ee,wfn = optimize('b3lyp-d3', return_wfn=True)
oeprop( wfn, 'DIPOLE', 'QUADRUPOLE', 'MULLIKEN_CHARGES')
f=open( 'psi4out.xyz', 'w' )
f.write( "18  " )
f.write( str(ee) + "\n" )
f.write( MOL.save_string_xyz() )
f.close()
--------------------------------------------------------------------------

    Molecular point group: c1
  Charge       = 1
  Multiplicity = 1
  Basis Set: 6-31G*
    Blend: 6-31G*
   => B3LYP Composite Functional <=
  Basis Set: (6-31G* AUX)
    Blend: CC-PVDZ-JKFIT
  @DF-RKS Final Energy:  -381.46858127350333
    Total Energy =                       -381.4685812735033323
    Molecular point group: c1
  Basis Set: 6-31G*
    Blend: 6-31G*
  Basis Set: (6-31G* AUX)
    Blend: CC-PVDZ-JKFIT
   => B3LYP Composite Functional <=
  Basis Set: 6-31G*
    Blend: 6-31G*
   => B3LYP Composite Functional <=
  Basis Set: (6-31G* AUX)
    Blend: CC-PVDZ-JKFIT
  @DF-RKS Final Energy:  -381.46902519629401
    Total Energy =                       -381.4690251962940124
  Basis Set: 6-31G*
    Blend: 6-31G*
  Basis Set: (6-31G* AUX)
  @DF-RKS Final Energy:  -381.46926232141305
    Total Energy =                       -381.4692623214129981
  @DF-RKS Final Energy:  -381.46927664289723
    Total Energy =                       -381.4692766428972277
   => B3LYP Composite Functional <=
  Basis Set: (6-31G* AUX)
    Blend: CC-PVDZ-JKFIT
  @DF-RKS Final Energy:  -381.46928078600803
    Total Energy =                       -381.4692807860080279
  Basis Set: 6-31G*
    Blend: 6-31G*
  Basis Set: (6-31G* AUX)
    Blend: CC-PVDZ-JKFIT
   => B3LYP Composite Functional <=
  Charge       = 1
  Multiplicity = 1
  Basis Set: 6-31G*
    Blend: 6-31G*
   => B3LYP Composite Functional <=
  Basis Set: (6-31G* AUX)
    Blend: CC-PVDZ-JKFIT

    Orbital Energies (a.u.)
    -----------------------

    Doubly Occupied:

       1A    -14.566349     2A    -14.566186     3A    -10.497089
       4A    -10.375216     5A    -10.358654     6A    -10.358283
       7A    -10.345310     8A    -10.341968     9A    -10.341913
      10A     -1.182988    11A     -1.090116    12A     -1.015776
      13A     -0.927879    14A     -0.904131    15A     -0.846428
      16A     -0.785657    17A     -0.775211    18A     -0.737891
      19A     -0.735532    20A     -0.688663    21A     -0.669275
      22A     -0.628756    23A     -0.613732    24A     -0.592666
      25A     -0.580775    26A     -0.574793    27A     -0.518410
      28A     -0.507888    29A     -0.499698    30A     -0.471889
      31A     -0.413023    32A     -0.407235

  @DF-RKS Final Energy:  -381.46928130101645

   => Energetics <=

    Nuclear Repulsion Energy =            416.8513929366521324
    One-Electron Energy =               -1328.8546395940784350
    Two-Electron Energy =                 574.9522341216040786
    DFT Exchange-Correlation Energy =     -44.4065416651942684
    Empirical Dispersion Energy =          -0.0117271000000000
    PCM Polarization Energy =               0.0000000000000000
    EFP Energy =                            0.0000000000000000
    Total Energy =                       -381.4692813010164514
    Molecular point group: c1
  Basis Set: 6-31G*
    Blend: 6-31G*
  Basis Set: (6-31G* AUX)
    Blend: CC-PVDZ-JKFIT
   => B3LYP Composite Functional <=

  -Total Gradient:
     Atom            X                  Y                   Z
    ------   -----------------  -----------------  -----------------
       1        0.006406370612    -0.002816775795    -0.000256687281
       2       -0.003386218214     0.001157423096     0.000126803139
       3       -0.000009416453    -0.000002222503    -0.000000446710
       4       -0.000007836894     0.000003677259     0.000006013394
       5        0.000000981620    -0.000001494684    -0.000000116544
       6        0.000005950162    -0.000002267363    -0.000003055543
       7       -0.005982061174     0.004064514274     0.000223131465
       8        0.000000569039    -0.000007162645    -0.000001583717
       9       -0.000000241834    -0.000002252992    -0.000006223118
      10        0.000002280823    -0.000002927440    -0.000003689770
      11        0.000001571581     0.000001163127    -0.000005871055
      12        0.000008281270    -0.000000201252    -0.000005969750
      13        0.002955677090    -0.002380929296    -0.000108984262
      14        0.000015191599    -0.000000969407    -0.000001954857
      15       -0.000009911784     0.000003188635     0.000009967811
      16       -0.000004019122     0.000001004807     0.000008263914
      17       -0.000001086475    -0.000008082714     0.000000730696
      18        0.000003526108    -0.000006154644     0.000003458042

  **** Optimization is complete! (in 6 steps) ****
    Final optimized geometry and variables:
    Molecular point group: c1

    Geometry (in Angstrom), charge = 1, multiplicity = 1:

    C            0.028818822420    -0.009038223841    -0.192673977459
    C           -0.344118984105    -1.168106078969     0.516280364756
    C           -0.354537911549    -1.159956311593     1.906494799862
    C           -0.009473384729     0.002235578811     2.603167058611
    C            0.343818582325     1.162111445933     1.907513510492
    C            0.356067068978     1.163444490542     0.517018865715
    C           -0.007417046702     0.008003874828    -1.658523091302
    H           -0.560495170664    -2.095180582123    -0.006587465073
    H           -0.622214010568    -2.061885001918     2.447112184173
    H           -0.020125030652     0.004937833320     3.688741338863
    H            0.592344687589     2.069437240292     2.448241423367
    H            0.570631657758     2.090558236938    -0.006550101682
    N           -0.742250926690    -0.879237530730    -2.327475352608
    N            0.736940842599     0.877926141877    -2.338859860049
    H            0.684761595094     0.969105386349    -3.346220887043
    H            1.450844604712     1.418265758957    -1.869532751033
    H           -1.456399849571    -1.413306212333    -1.851294361533
    H           -0.722228206370    -0.948170681404    -3.337851776122

  Mulliken Charges: (a.u.)
   Center  Symbol    Alpha    Beta     Spin     Total
       1     C     2.94359  2.94359  0.00000  0.11282
       2     C     3.08606  3.08606  0.00000 -0.17212
       3     C     3.06203  3.06203  0.00000 -0.12405
       4     C     3.05129  3.05129  0.00000 -0.10259
       5     C     3.06161  3.06161  0.00000 -0.12323
       6     C     3.08504  3.08504  0.00000 -0.17007
       7     C     2.71246  2.71246  0.00000  0.57508
       8     H     0.41590  0.41590  0.00000  0.16821
       9     H     0.40511  0.40511  0.00000  0.18978
      10     H     0.40315  0.40315  0.00000  0.19371
      11     H     0.40510  0.40510  0.00000  0.18981
      12     H     0.41645  0.41645  0.00000  0.16710
      13     N     3.87018  3.87018  0.00000 -0.74037
      14     N     3.86873  3.86873  0.00000 -0.73746
      15     H     0.30585  0.30585  0.00000  0.38830
      16     H     0.30040  0.30040  0.00000  0.39921
      17     H     0.30113  0.30113  0.00000  0.39774
      18     H     0.30593  0.30593  0.00000  0.38814

   Total alpha = 32.00000, Total beta = 32.00000, Total charge =  1.00000

*** Psi4 exiting successfully. Buy a developer a beer!
