                               Psi4 1.1 release

  ==> Input File <==

--------------------------------------------------------------------------
set {
	reference rks
	basis 6-31G*
}

set_num_threads( 8 )
memory 2 gb

molecule MOL {
1 1

C	 -0.265787	 1.428913	 -1.856672
C	 0.799610	 2.348669	 -1.850131
C	 0.541769	 3.702158	 -2.043278
C	 -0.770950	 4.144746	 -2.233306
C	 -1.831932	 3.233956	 -2.235647
C	 -1.585591	 1.876887	 -2.052891
C	 -0.000000	 -0.000000	 -1.658508
H	 1.824770	 2.004608	 -1.745703
H	 1.363991	 4.410202	 -2.055866
H	 -0.967663	 5.202303	 -2.379969
H	 -2.850729	 3.582725	 -2.369617
H	 -2.416868	 1.178599	 -2.012765
N	 -0.712589	 -0.905950	 -2.322235
N	 0.953115	 -0.387156	 -0.815451
H	 1.237262	 -1.354354	 -0.712717
H	 1.380441	 0.286834	 -0.193828
H	 -1.377189	 -1.485970	 -1.827091
H	 -0.673431	 -1.006470	 -3.329771

	symmetry c1
}
set optking { dynamic_level = 1 }
set optking {
	frozen_dihedral = ("
		1 7 13 17
	")
}

ee,wfn = optimize('b3lyp-d3', return_wfn=True)
oeprop( wfn, 'DIPOLE', 'QUADRUPOLE', 'MULLIKEN_CHARGES')
f=open( 'psi4out.xyz', 'w' )
f.write( "18  " )
f.write( str(ee) + "\n" )
f.write( MOL.save_string_xyz() )
f.close()
--------------------------------------------------------------------------

    Molecular point group: c1
  Charge       = 1
  Multiplicity = 1
  Basis Set: 6-31G*
    Blend: 6-31G*
   => B3LYP Composite Functional <=
  Basis Set: (6-31G* AUX)
    Blend: CC-PVDZ-JKFIT
  @DF-RKS Final Energy:  -381.43903078751470
    Total Energy =                       -381.4390307875146391
    Molecular point group: c1
  Basis Set: 6-31G*
    Blend: 6-31G*
  Basis Set: (6-31G* AUX)
    Blend: CC-PVDZ-JKFIT
   => B3LYP Composite Functional <=
  Basis Set: 6-31G*
    Blend: 6-31G*
   => B3LYP Composite Functional <=
  Basis Set: (6-31G* AUX)
    Blend: CC-PVDZ-JKFIT
  @DF-RKS Final Energy:  -381.44830956681955
    Total Energy =                       -381.4483095668195460
  Basis Set: 6-31G*
    Blend: 6-31G*
  Basis Set: (6-31G* AUX)
  @DF-RKS Final Energy:  -381.45135521689150
    Total Energy =                       -381.4513552168914998
  @DF-RKS Final Energy:  -381.45617976929839
    Total Energy =                       -381.4561797692983873
  @DF-RKS Final Energy:  -381.45674079861055
    Total Energy =                       -381.4567407986106105
  @DF-RKS Final Energy:  -381.45680214357031
    Total Energy =                       -381.4568021435703713
  @DF-RKS Final Energy:  -381.45682017606345
    Total Energy =                       -381.4568201760634452
   => B3LYP Composite Functional <=
  Basis Set: (6-31G* AUX)
    Blend: CC-PVDZ-JKFIT
  @DF-RKS Final Energy:  -381.45682174587483
    Total Energy =                       -381.4568217458748336
  Basis Set: 6-31G*
    Blend: 6-31G*
  Basis Set: (6-31G* AUX)
    Blend: CC-PVDZ-JKFIT
   => B3LYP Composite Functional <=
  Charge       = 1
  Multiplicity = 1
  Basis Set: 6-31G*
    Blend: 6-31G*
   => B3LYP Composite Functional <=
  Basis Set: (6-31G* AUX)
    Blend: CC-PVDZ-JKFIT

    Orbital Energies (a.u.)
    -----------------------

    Doubly Occupied:

       1A    -14.574633     2A    -14.547066     3A    -10.496423
       4A    -10.378518     5A    -10.364938     6A    -10.363927
       7A    -10.353016     8A    -10.347625     9A    -10.347587
      10A     -1.179471    11A     -1.083932    12A     -1.020655
      13A     -0.930823    14A     -0.909674    15A     -0.843093
      16A     -0.784461    17A     -0.772452    18A     -0.739433
      19A     -0.725716    20A     -0.680643    21A     -0.674819
      22A     -0.634944    23A     -0.614185    24A     -0.589500
      25A     -0.584711    26A     -0.565224    27A     -0.523989
      28A     -0.513439    29A     -0.504631    30A     -0.469581
      31A     -0.420493    32A     -0.413195

  @DF-RKS Final Energy:  -381.45682222187475

   => Energetics <=

    Nuclear Repulsion Energy =            416.4076109918057114
    One-Electron Energy =               -1327.8816027457485234
    Two-Electron Energy =                 574.4254518890793406
    DFT Exchange-Correlation Energy =     -44.3962611370112512
    Empirical Dispersion Energy =          -0.0120212200000000
    PCM Polarization Energy =               0.0000000000000000
    EFP Energy =                            0.0000000000000000
    Total Energy =                       -381.4568222218746882
    Molecular point group: c1
  Basis Set: 6-31G*
    Blend: 6-31G*
  Basis Set: (6-31G* AUX)
    Blend: CC-PVDZ-JKFIT
   => B3LYP Composite Functional <=

  -Total Gradient:
     Atom            X                  Y                   Z
    ------   -----------------  -----------------  -----------------
       1       -0.005901523581    -0.000094146095     0.007802481236
       2        0.000017002384     0.000014849201     0.000005363304
       3        0.000003985271    -0.000004051122    -0.000002493781
       4        0.000002870083     0.000006959918    -0.000001218906
       5       -0.000004839372    -0.000010969103     0.000003971516
       6       -0.000014237513     0.000012604084    -0.000017299157
       7        0.006080100491     0.002945387611    -0.013071388249
       8       -0.000001229842    -0.000015483658     0.000018004746
       9        0.000002851594     0.000000064053     0.000002525068
      10        0.000000829896    -0.000000448158    -0.000001565694
      11       -0.000002780423    -0.000004048601    -0.000000509842
      12       -0.000002005322    -0.000006003576     0.000000742571
      13        0.009740758886    -0.011322577040     0.007015166200
      14       -0.000064152055     0.000045028668     0.000087402354
      15       -0.000003898053    -0.000004111602    -0.000009944949
      16        0.000018293143     0.000020138129     0.000003502668
      17       -0.009841361694     0.008410109246    -0.001854627006
      18       -0.000034377651    -0.000015806427     0.000018650208

  **** Optimization is complete! (in 9 steps) ****
    Final optimized geometry and variables:
    Molecular point group: c1

    Geometry (in Angstrom), charge = 1, multiplicity = 1:

    C            0.060395948773    -0.184527721611    -0.010040470265
    C            1.097303295607     0.769258756569     0.085068384083
    C            0.812334455365     2.119608735858    -0.069466908349
    C           -0.501883827793     2.530818649995    -0.322634063619
    C           -1.533310792679     1.591653611972    -0.428671126503
    C           -1.257631331992     0.237113377627    -0.283649915629
    C            0.335734946355    -1.599454839349     0.192543722058
    H            2.125911996092     0.449518401865     0.228449879490
    H            1.610989313022     2.851669506834    -0.009393225806
    H           -0.721455903113     3.587292462769    -0.443160971260
    H           -2.550752795855     1.917592177976    -0.618241126503
    H           -2.068047376861    -0.483684184466    -0.333084995386
    N           -0.405656004560    -2.592987806369    -0.376881907546
    N            1.270692636243    -1.988139835431     1.047352842858
    H            1.532660268982    -2.966092503765     1.116650608857
    H            1.738481865553    -1.327379585596     1.655804171943
    H           -0.994564931711    -3.148820728810     0.238626338257
    H           -0.939622143796    -2.292818404411    -1.187174612160

  Mulliken Charges: (a.u.)
   Center  Symbol    Alpha    Beta     Spin     Total
       1     C     2.94291  2.94291  0.00000  0.11419
       2     C     3.08265  3.08265  0.00000 -0.16530
       3     C     3.06192  3.06192  0.00000 -0.12384
       4     C     3.04981  3.04981  0.00000 -0.09961
       5     C     3.06200  3.06200  0.00000 -0.12400
       6     C     3.07908  3.07908  0.00000 -0.15817
       7     C     2.76085  2.76085  0.00000  0.47830
       8     H     0.41245  0.41245  0.00000  0.17509
       9     H     0.40333  0.40333  0.00000  0.19334
      10     H     0.40129  0.40129  0.00000  0.19741
      11     H     0.40352  0.40352  0.00000  0.19295
      12     H     0.41792  0.41792  0.00000  0.16417
      13     N     3.86484  3.86484  0.00000 -0.72967
      14     N     3.84294  3.84294  0.00000 -0.68589
      15     H     0.29919  0.29919  0.00000  0.40162
      16     H     0.30073  0.30073  0.00000  0.39854
      17     H     0.30422  0.30422  0.00000  0.39156
      18     H     0.31035  0.31035  0.00000  0.37931

   Total alpha = 32.00000, Total beta = 32.00000, Total charge =  1.00000

*** Psi4 exiting successfully. Buy a developer a beer!
