                               Psi4 1.1 release

  ==> Input File <==

--------------------------------------------------------------------------
set_num_threads(1)
set_memory(4203741184)

set { reference rks }
set { basis cc-pVDZ }

molecule MOL {
    0 1
    noreorient
    nocom
    symmetry c1
    O    1.050400   0.042900  -0.048100
    C    2.474100   0.047400  -0.029000
    C    3.002600  -1.068900  -0.932000
    N    4.462700  -1.072400  -1.006800
    H    0.775913  -0.877768  -0.199883
    H    2.809900  -0.097900   1.003200
    H    2.817400   1.026800  -0.378600
    H    2.581000  -0.963300  -1.938400
    H    2.653800  -2.036400  -0.553400
    H    4.779000  -0.221000  -1.470000
    H    4.758600  -1.842500  -1.606500
}

set optking { frozen_dihedral = (" 3 2 1 5 ") }

energy, wfn = energy('B3LYP-D3', return_wfn=True)

import os
os.chdir(os.environ['HTMD_PSI4_WORKDIR'])

oeprop(wfn, 'DIPOLE', 'QUADRUPOLE', 'MULLIKEN_CHARGES')

with open('psi4out.xyz', 'w') as f:
    f.write('11 ' )
    f.write('%.12f\n' % energy)
    f.write(MOL.save_string_xyz())
--------------------------------------------------------------------------

    Molecular point group: c1

    Geometry (in Angstrom), charge = 0, multiplicity = 1:

       Center              X                  Y                   Z               Mass
    ------------   -----------------  -----------------  -----------------  -----------------
           O          1.050400000000     0.042900000000    -0.048100000000    15.994914619560
           C          2.474100000000     0.047400000000    -0.029000000000    12.000000000000
           C          3.002600000000    -1.068900000000    -0.932000000000    12.000000000000
           N          4.462700000000    -1.072400000000    -1.006800000000    14.003074004780
           H          0.775913000000    -0.877768000000    -0.199883000000     1.007825032070
           H          2.809900000000    -0.097900000000     1.003200000000     1.007825032070
           H          2.817400000000     1.026800000000    -0.378600000000     1.007825032070
           H          2.581000000000    -0.963300000000    -1.938400000000     1.007825032070
           H          2.653800000000    -2.036400000000    -0.553400000000     1.007825032070
           H          4.779000000000    -0.221000000000    -1.470000000000     1.007825032070
           H          4.758600000000    -1.842500000000    -1.606500000000     1.007825032070

  Charge       = 0
  Multiplicity = 1
  Basis Set: CC-PVDZ
    Blend: CC-PVDZ
   => B3LYP Composite Functional <=
  Basis Set: (CC-PVDZ AUX)
    Blend: CC-PVDZ-JKFIT

    Orbital Energies (a.u.)
    -----------------------

    Doubly Occupied:

       1A    -19.127555     2A    -14.310319     3A    -10.224260
       4A    -10.210588     5A     -1.011015     6A     -0.882622
       7A     -0.712028     8A     -0.617544     9A     -0.498178
      10A     -0.486224    11A     -0.449788    12A     -0.431824
      13A     -0.397856    14A     -0.373463    15A     -0.321039
      16A     -0.262139    17A     -0.237397

  @DF-RKS Final Energy:  -210.39105904020002

   => Energetics <=

    Nuclear Repulsion Energy =            131.0386884005995398
    One-Electron Energy =                -544.8690162983029950
    Two-Electron Energy =                 226.9315703069759707
    DFT Exchange-Correlation Energy =     -23.4871370194725309
    Empirical Dispersion Energy =          -0.0051644300000000
    PCM Polarization Energy =               0.0000000000000000
    EFP Energy =                            0.0000000000000000
    Total Energy =                       -210.3910590402000196

  Mulliken Charges: (a.u.)
   Center  Symbol    Alpha    Beta     Spin     Total
       1     O     4.13859  4.13859  0.00000 -0.27719
       2     C     2.91459  2.91459  0.00000  0.17082
       3     C     3.00827  3.00827  0.00000 -0.01654
       4     N     3.59041  3.59041  0.00000 -0.18082
       5     H     0.43185  0.43185  0.00000  0.13630
       6     H     0.49607  0.49607  0.00000  0.00786
       7     H     0.49487  0.49487  0.00000  0.01026
       8     H     0.50176  0.50176  0.00000 -0.00352
       9     H     0.49595  0.49595  0.00000  0.00810
      10     H     0.46364  0.46364  0.00000  0.07272
      11     H     0.46399  0.46399  0.00000  0.07201

   Total alpha = 17.00000, Total beta = 17.00000, Total charge = -0.00000

*** Psi4 exiting successfully. Buy a developer a beer!
