                               Psi4 1.1 release

  ==> Input File <==

--------------------------------------------------------------------------
set_num_threads(1)
set_memory(4203741184)

set { reference rks }
set { basis cc-pVDZ }

molecule MOL {
    0 1
    noreorient
    nocom
    symmetry c1
    O    1.050400   0.042900  -0.048100
    C    2.474100   0.047400  -0.029000
    C    3.002600  -1.068900  -0.932000
    N    4.462700  -1.072400  -1.006800
    H    0.760400   0.728400   0.578000
    H    2.809900  -0.097900   1.003200
    H    2.817400   1.026800  -0.378600
    H    2.581000  -0.963300  -1.938400
    H    2.653800  -2.036400  -0.553400
    H    4.782310  -1.987558  -1.322741
    H    4.839627  -0.954771  -0.066406
}

set optking { frozen_dihedral = (" 2 3 4 10 ") }

energy, wfn = energy('B3LYP-D3', return_wfn=True)

import os
os.chdir(os.environ['HTMD_PSI4_WORKDIR'])

oeprop(wfn, 'DIPOLE', 'QUADRUPOLE', 'MULLIKEN_CHARGES')

with open('psi4out.xyz', 'w') as f:
    f.write('11 ' )
    f.write('%.12f\n' % energy)
    f.write(MOL.save_string_xyz())
--------------------------------------------------------------------------

    Molecular point group: c1

    Geometry (in Angstrom), charge = 0, multiplicity = 1:

       Center              X                  Y                   Z               Mass
    ------------   -----------------  -----------------  -----------------  -----------------
           O          1.050400000000     0.042900000000    -0.048100000000    15.994914619560
           C          2.474100000000     0.047400000000    -0.029000000000    12.000000000000
           C          3.002600000000    -1.068900000000    -0.932000000000    12.000000000000
           N          4.462700000000    -1.072400000000    -1.006800000000    14.003074004780
           H          0.760400000000     0.728400000000     0.578000000000     1.007825032070
           H          2.809900000000    -0.097900000000     1.003200000000     1.007825032070
           H          2.817400000000     1.026800000000    -0.378600000000     1.007825032070
           H          2.581000000000    -0.963300000000    -1.938400000000     1.007825032070
           H          2.653800000000    -2.036400000000    -0.553400000000     1.007825032070
           H          4.782310000000    -1.987558000000    -1.322741000000     1.007825032070
           H          4.839627000000    -0.954771000000    -0.066406000000     1.007825032070

  Charge       = 0
  Multiplicity = 1
  Basis Set: CC-PVDZ
    Blend: CC-PVDZ
   => B3LYP Composite Functional <=
  Basis Set: (CC-PVDZ AUX)
    Blend: CC-PVDZ-JKFIT

    Orbital Energies (a.u.)
    -----------------------

    Doubly Occupied:

       1A    -19.129221     2A    -14.304046     3A    -10.227385
       4A    -10.201532     5A     -1.011580     6A     -0.876915
       7A     -0.712821     8A     -0.600071     9A     -0.508118
      10A     -0.477026    11A     -0.467778    12A     -0.410487
      13A     -0.382714    14A     -0.373730    15A     -0.324390
      16A     -0.262801    17A     -0.229317

  @DF-RKS Final Energy:  -210.38987978741639

   => Energetics <=

    Nuclear Repulsion Energy =            130.5367646078994994
    One-Electron Energy =                -543.9711790323774494
    Two-Electron Energy =                 226.5362064117940122
    DFT Exchange-Correlation Energy =     -23.4867382447324644
    Empirical Dispersion Energy =          -0.0049335300000000
    PCM Polarization Energy =               0.0000000000000000
    EFP Energy =                            0.0000000000000000
    Total Energy =                       -210.3898797874163904

  Mulliken Charges: (a.u.)
   Center  Symbol    Alpha    Beta     Spin     Total
       1     O     4.13817  4.13817  0.00000 -0.27634
       2     C     2.93606  2.93606  0.00000  0.12788
       3     C     2.97946  2.97946  0.00000  0.04107
       4     N     3.59338  3.59338  0.00000 -0.18677
       5     H     0.42983  0.42983  0.00000  0.14034
       6     H     0.50384  0.50384  0.00000 -0.00767
       7     H     0.49723  0.49723  0.00000  0.00554
       8     H     0.48931  0.48931  0.00000  0.02138
       9     H     0.50129  0.50129  0.00000 -0.00258
      10     H     0.46341  0.46341  0.00000  0.07317
      11     H     0.46800  0.46800  0.00000  0.06399

   Total alpha = 17.00000, Total beta = 17.00000, Total charge = -0.00000

*** Psi4 exiting successfully. Buy a developer a beer!
