                               Psi4 1.1 release

  ==> Input File <==

--------------------------------------------------------------------------
set_num_threads( 8 )
memory 2.000000 gb

set { reference rks }
set { basis cc-pVDZ }

molecule MOL {
    0 1
    noreorient
    nocom
    symmetry c1
    O    1.141000   0.017000   0.083000
    C    2.558000   0.086000  -0.005000
    C    3.192000  -0.789000   1.067000
    O    4.610000  -0.719000   0.979000
    H    0.789000   0.590000  -0.620000
    H    2.874000   1.128000   0.115000
    H    2.871000  -0.243000  -1.001000
    H    2.876000  -1.830000   0.947000
    H    2.879000  -0.459000   2.064000
    H    4.830242  -0.719539   0.031171
}

set optking { frozen_dihedral = (" 1 2 3 4, 2 3 4 10 ") }

energy, wfn = energy('B3LYP-D3', return_wfn=True)

import os
os.chdir(os.environ['HTMD_PSI4_WORKDIR'])

oeprop(wfn, 'DIPOLE', 'QUADRUPOLE', 'MULLIKEN_CHARGES')

with open('psi4out.xyz', 'w') as f:
    f.write('10 ' )
    f.write('%.12f\n' % energy)
    f.write(MOL.save_string_xyz())
--------------------------------------------------------------------------

    Molecular point group: c1

    Geometry (in Angstrom), charge = 0, multiplicity = 1:

       Center              X                  Y                   Z               Mass
    ------------   -----------------  -----------------  -----------------  -----------------
           O          1.141000000000     0.017000000000     0.083000000000    15.994914619560
           C          2.558000000000     0.086000000000    -0.005000000000    12.000000000000
           C          3.192000000000    -0.789000000000     1.067000000000    12.000000000000
           O          4.610000000000    -0.719000000000     0.979000000000    15.994914619560
           H          0.789000000000     0.590000000000    -0.620000000000     1.007825032070
           H          2.874000000000     1.128000000000     0.115000000000     1.007825032070
           H          2.871000000000    -0.243000000000    -1.001000000000     1.007825032070
           H          2.876000000000    -1.830000000000     0.947000000000     1.007825032070
           H          2.879000000000    -0.459000000000     2.064000000000     1.007825032070
           H          4.830242000000    -0.719539000000     0.031171000000     1.007825032070

  Charge       = 0
  Multiplicity = 1
  Basis Set: CC-PVDZ
    Blend: CC-PVDZ
   => B3LYP Composite Functional <=
  Basis Set: (CC-PVDZ AUX)
    Blend: CC-PVDZ-JKFIT

    Orbital Energies (a.u.)
    -----------------------

    Doubly Occupied:

       1A    -19.137114     2A    -19.134184     3A    -10.233382
       4A    -10.227104     5A     -1.024064     6A     -1.011912
       7A     -0.732668     8A     -0.622210     9A     -0.518105
      10A     -0.493931    11A     -0.464168    12A     -0.426773
      13A     -0.398729    14A     -0.350616    15A     -0.324015
      16A     -0.270843    17A     -0.267518

  @DF-RKS Final Energy:  -230.25777208955910

   => Energetics <=

    Nuclear Repulsion Energy =            130.0221642173407588
    One-Electron Energy =                -571.6527016124750844
    Two-Electron Energy =                 235.9154143576001275
    DFT Exchange-Correlation Energy =     -24.5380047620249364
    Empirical Dispersion Energy =          -0.0046442900000000
    PCM Polarization Energy =               0.0000000000000000
    EFP Energy =                            0.0000000000000000
    Total Energy =                       -230.2577720895590971

  Mulliken Charges: (a.u.)
   Center  Symbol    Alpha    Beta     Spin     Total
       1     O     4.13797  4.13797  0.00000 -0.27593
       2     C     2.95451  2.95451  0.00000  0.09097
       3     C     2.92264  2.92264  0.00000  0.15471
       4     O     4.13817  4.13817  0.00000 -0.27634
       5     H     0.42806  0.42806  0.00000  0.14389
       6     H     0.49783  0.49783  0.00000  0.00434
       7     H     0.50561  0.50561  0.00000 -0.01122
       8     H     0.49650  0.49650  0.00000  0.00699
       9     H     0.48656  0.48656  0.00000  0.02688
      10     H     0.43214  0.43214  0.00000  0.13571

   Total alpha = 17.00000, Total beta = 17.00000, Total charge =  0.00000

*** Psi4 exiting successfully. Buy a developer a beer!
