                               Psi4 1.1 release

  ==> Input File <==

--------------------------------------------------------------------------
set_num_threads(1)
set_memory(4203741184)

set { reference rks }
set { basis cc-pVDZ }

molecule MOL {
    0 1
    noreorient
    nocom
    symmetry c1
    O    1.141000   0.017000   0.083000
    C    2.558000   0.086000  -0.005000
    C    3.192000  -0.789000   1.067000
    O    4.610000  -0.719000   0.979000
    H    0.816215   0.934023   0.087976
    H    2.874000   1.128000   0.115000
    H    2.871000  -0.243000  -1.001000
    H    2.876000  -1.830000   0.947000
    H    2.879000  -0.459000   2.064000
    H    4.961000  -1.293000   1.682000
}

set optking { frozen_dihedral = (" 3 2 1 5 ") }

energy, wfn = energy('B3LYP-D3', return_wfn=True)

import os
os.chdir(os.environ['HTMD_PSI4_WORKDIR'])

oeprop(wfn, 'DIPOLE', 'QUADRUPOLE', 'MULLIKEN_CHARGES')

with open('psi4out.xyz', 'w') as f:
    f.write('10 ' )
    f.write('%.12f\n' % energy)
    f.write(MOL.save_string_xyz())
--------------------------------------------------------------------------

    Molecular point group: c1

    Geometry (in Angstrom), charge = 0, multiplicity = 1:

       Center              X                  Y                   Z               Mass
    ------------   -----------------  -----------------  -----------------  -----------------
           O          1.141000000000     0.017000000000     0.083000000000    15.994914619560
           C          2.558000000000     0.086000000000    -0.005000000000    12.000000000000
           C          3.192000000000    -0.789000000000     1.067000000000    12.000000000000
           O          4.610000000000    -0.719000000000     0.979000000000    15.994914619560
           H          0.816215000000     0.934023000000     0.087976000000     1.007825032070
           H          2.874000000000     1.128000000000     0.115000000000     1.007825032070
           H          2.871000000000    -0.243000000000    -1.001000000000     1.007825032070
           H          2.876000000000    -1.830000000000     0.947000000000     1.007825032070
           H          2.879000000000    -0.459000000000     2.064000000000     1.007825032070
           H          4.961000000000    -1.293000000000     1.682000000000     1.007825032070

  Charge       = 0
  Multiplicity = 1
  Basis Set: CC-PVDZ
    Blend: CC-PVDZ
   => B3LYP Composite Functional <=
  Basis Set: (CC-PVDZ AUX)
    Blend: CC-PVDZ-JKFIT

    Orbital Energies (a.u.)
    -----------------------

    Doubly Occupied:

       1A    -19.132833     2A    -19.130669     3A    -10.226563
       4A    -10.224185     5A     -1.019242     6A     -1.008542
       7A     -0.731228     8A     -0.605637     9A     -0.525914
      10A     -0.489483    11A     -0.460301    12A     -0.418284
      13A     -0.395702    14A     -0.342655    15A     -0.321959
      16A     -0.267044    17A     -0.263264

  @DF-RKS Final Energy:  -230.25675779303566

   => Energetics <=

    Nuclear Repulsion Energy =            129.5292153211240986
    One-Electron Energy =                -570.8119172876745324
    Two-Electron Energy =                 235.5695491000007848
    DFT Exchange-Correlation Energy =     -24.5391744164859915
    Empirical Dispersion Energy =          -0.0044305100000000
    PCM Polarization Energy =               0.0000000000000000
    EFP Energy =                            0.0000000000000000
    Total Energy =                       -230.2567577930356606

  Mulliken Charges: (a.u.)
   Center  Symbol    Alpha    Beta     Spin     Total
       1     O     4.13997  4.13997  0.00000 -0.27993
       2     C     2.93741  2.93741  0.00000  0.12517
       3     C     2.93554  2.93554  0.00000  0.12892
       4     O     4.14116  4.14116  0.00000 -0.28231
       5     H     0.42705  0.42705  0.00000  0.14591
       6     H     0.49765  0.49765  0.00000  0.00470
       7     H     0.49332  0.49332  0.00000  0.01335
       8     H     0.49751  0.49751  0.00000  0.00498
       9     H     0.50261  0.50261  0.00000 -0.00523
      10     H     0.42778  0.42778  0.00000  0.14445

   Total alpha = 17.00000, Total beta = 17.00000, Total charge = -0.00000

*** Psi4 exiting successfully. Buy a developer a beer!
