                               Psi4 1.1 release

  ==> Input File <==

--------------------------------------------------------------------------
set_num_threads(1)
set_memory(4203741184)

set { reference rks }
set { basis cc-pVDZ }

molecule MOL {
    0 1
    noreorient
    nocom
    symmetry c1
    O    1.050400   0.042900  -0.048100
    C    2.474100   0.047400  -0.029000
    C    3.002600  -1.068900  -0.932000
    N    4.462700  -1.072400  -1.006800
    H    0.773777  -0.889510  -0.037928
    H    2.809900  -0.097900   1.003200
    H    2.817400   1.026800  -0.378600
    H    2.581000  -0.963300  -1.938400
    H    2.653800  -2.036400  -0.553400
    H    4.779000  -0.221000  -1.470000
    H    4.758600  -1.842500  -1.606500
}

set optking { frozen_dihedral = (" 3 2 1 5 ") }

energy, wfn = energy('B3LYP-D3', return_wfn=True)

import os
os.chdir(os.environ['HTMD_PSI4_WORKDIR'])

oeprop(wfn, 'DIPOLE', 'QUADRUPOLE', 'MULLIKEN_CHARGES')

with open('psi4out.xyz', 'w') as f:
    f.write('11 ' )
    f.write('%.12f\n' % energy)
    f.write(MOL.save_string_xyz())
--------------------------------------------------------------------------

    Molecular point group: c1

    Geometry (in Angstrom), charge = 0, multiplicity = 1:

       Center              X                  Y                   Z               Mass
    ------------   -----------------  -----------------  -----------------  -----------------
           O          1.050400000000     0.042900000000    -0.048100000000    15.994914619560
           C          2.474100000000     0.047400000000    -0.029000000000    12.000000000000
           C          3.002600000000    -1.068900000000    -0.932000000000    12.000000000000
           N          4.462700000000    -1.072400000000    -1.006800000000    14.003074004780
           H          0.773777000000    -0.889510000000    -0.037928000000     1.007825032070
           H          2.809900000000    -0.097900000000     1.003200000000     1.007825032070
           H          2.817400000000     1.026800000000    -0.378600000000     1.007825032070
           H          2.581000000000    -0.963300000000    -1.938400000000     1.007825032070
           H          2.653800000000    -2.036400000000    -0.553400000000     1.007825032070
           H          4.779000000000    -0.221000000000    -1.470000000000     1.007825032070
           H          4.758600000000    -1.842500000000    -1.606500000000     1.007825032070

  Charge       = 0
  Multiplicity = 1
  Basis Set: CC-PVDZ
    Blend: CC-PVDZ
   => B3LYP Composite Functional <=
  Basis Set: (CC-PVDZ AUX)
    Blend: CC-PVDZ-JKFIT

    Orbital Energies (a.u.)
    -----------------------

    Doubly Occupied:

       1A    -19.128099     2A    -14.309234     3A    -10.224421
       4A    -10.208750     5A     -1.011234     6A     -0.881548
       7A     -0.711762     8A     -0.615753     9A     -0.497464
      10A     -0.488716    11A     -0.448143    12A     -0.429115
      13A     -0.397752    14A     -0.373302    15A     -0.321129
      16A     -0.262692    17A     -0.236209

  @DF-RKS Final Energy:  -210.39168077327869

   => Energetics <=

    Nuclear Repulsion Energy =            130.9860605479186404
    One-Electron Energy =                -544.7821626300433309
    Two-Electron Energy =                 226.8964863851855966
    DFT Exchange-Correlation Energy =     -23.4868968663396203
    Empirical Dispersion Energy =          -0.0051682100000000
    PCM Polarization Energy =               0.0000000000000000
    EFP Energy =                            0.0000000000000000
    Total Energy =                       -210.3916807732786936

  Mulliken Charges: (a.u.)
   Center  Symbol    Alpha    Beta     Spin     Total
       1     O     4.13892  4.13892  0.00000 -0.27783
       2     C     2.91595  2.91595  0.00000  0.16810
       3     C     3.00482  3.00482  0.00000 -0.00965
       4     N     3.59131  3.59131  0.00000 -0.18262
       5     H     0.43158  0.43158  0.00000  0.13684
       6     H     0.49668  0.49668  0.00000  0.00665
       7     H     0.49372  0.49372  0.00000  0.01256
       8     H     0.50152  0.50152  0.00000 -0.00303
       9     H     0.49750  0.49750  0.00000  0.00499
      10     H     0.46390  0.46390  0.00000  0.07221
      11     H     0.46411  0.46411  0.00000  0.07177

   Total alpha = 17.00000, Total beta = 17.00000, Total charge =  0.00000

*** Psi4 exiting successfully. Buy a developer a beer!
