                               Psi4 1.1 release

  ==> Input File <==

--------------------------------------------------------------------------
set_num_threads(1)
set_memory(4203741184)

set { reference rks }
set { basis cc-pVDZ }

molecule MOL {
    0 1
    noreorient
    nocom
    symmetry c1
    O    1.050400   0.042900  -0.048100
    C    2.474100   0.047400  -0.029000
    C    3.002600  -1.068900  -0.932000
    N    4.462700  -1.072400  -1.006800
    H    0.779677  -0.771650  -0.505516
    H    2.809900  -0.097900   1.003200
    H    2.817400   1.026800  -0.378600
    H    2.581000  -0.963300  -1.938400
    H    2.653800  -2.036400  -0.553400
    H    4.779000  -0.221000  -1.470000
    H    4.758600  -1.842500  -1.606500
}

set optking { frozen_dihedral = (" 3 2 1 5 ") }

energy, wfn = energy('B3LYP-D3', return_wfn=True)

import os
os.chdir(os.environ['HTMD_PSI4_WORKDIR'])

oeprop(wfn, 'DIPOLE', 'QUADRUPOLE', 'MULLIKEN_CHARGES')

with open('psi4out.xyz', 'w') as f:
    f.write('11 ' )
    f.write('%.12f\n' % energy)
    f.write(MOL.save_string_xyz())
--------------------------------------------------------------------------

    Molecular point group: c1

    Geometry (in Angstrom), charge = 0, multiplicity = 1:

       Center              X                  Y                   Z               Mass
    ------------   -----------------  -----------------  -----------------  -----------------
           O          1.050400000000     0.042900000000    -0.048100000000    15.994914619560
           C          2.474100000000     0.047400000000    -0.029000000000    12.000000000000
           C          3.002600000000    -1.068900000000    -0.932000000000    12.000000000000
           N          4.462700000000    -1.072400000000    -1.006800000000    14.003074004780
           H          0.779677000000    -0.771650000000    -0.505516000000     1.007825032070
           H          2.809900000000    -0.097900000000     1.003200000000     1.007825032070
           H          2.817400000000     1.026800000000    -0.378600000000     1.007825032070
           H          2.581000000000    -0.963300000000    -1.938400000000     1.007825032070
           H          2.653800000000    -2.036400000000    -0.553400000000     1.007825032070
           H          4.779000000000    -0.221000000000    -1.470000000000     1.007825032070
           H          4.758600000000    -1.842500000000    -1.606500000000     1.007825032070

  Charge       = 0
  Multiplicity = 1
  Basis Set: CC-PVDZ
    Blend: CC-PVDZ
   => B3LYP Composite Functional <=
  Basis Set: (CC-PVDZ AUX)
    Blend: CC-PVDZ-JKFIT

    Orbital Energies (a.u.)
    -----------------------

    Doubly Occupied:

       1A    -19.126736     2A    -14.311961     3A    -10.224026
       4A    -10.213075     5A     -1.010691     6A     -0.884168
       7A     -0.712437     8A     -0.619700     9A     -0.501378
      10A     -0.479568    11A     -0.451754    12A     -0.438085
      13A     -0.397552    14A     -0.372785    15A     -0.320751
      16A     -0.261599    17A     -0.239259

  @DF-RKS Final Energy:  -210.39008755762592

   => Energetics <=

    Nuclear Repulsion Energy =            131.1075928711241829
    One-Electron Energy =                -544.9814327257773812
    Two-Electron Energy =                 226.9763064815585665
    DFT Exchange-Correlation Energy =     -23.4874149545313280
    Empirical Dispersion Energy =          -0.0051392300000000
    PCM Polarization Energy =               0.0000000000000000
    EFP Energy =                            0.0000000000000000
    Total Energy =                       -210.3900875576259182

  Mulliken Charges: (a.u.)
   Center  Symbol    Alpha    Beta     Spin     Total
       1     O     4.13797  4.13797  0.00000 -0.27594
       2     C     2.91324  2.91324  0.00000  0.17351
       3     C     3.01249  3.01249  0.00000 -0.02498
       4     N     3.58899  3.58899  0.00000 -0.17799
       5     H     0.43266  0.43266  0.00000  0.13468
       6     H     0.49390  0.49390  0.00000  0.01220
       7     H     0.49792  0.49792  0.00000  0.00416
       8     H     0.50290  0.50290  0.00000 -0.00581
       9     H     0.49273  0.49273  0.00000  0.01454
      10     H     0.46343  0.46343  0.00000  0.07314
      11     H     0.46376  0.46376  0.00000  0.07248

   Total alpha = 17.00000, Total beta = 17.00000, Total charge = -0.00000

*** Psi4 exiting successfully. Buy a developer a beer!
