                               Psi4 1.1 release

  ==> Input File <==

--------------------------------------------------------------------------
set_num_threads( 8 )
memory 2.000000 gb

set { reference rks }
set { basis cc-pVDZ }

molecule MOL {
    0 1
    noreorient
    nocom
    symmetry c1
    O    1.050400   0.042900  -0.048100
    C    2.474100   0.047400  -0.029000
    C    3.002600  -1.068900  -0.932000
    N    2.086730  -2.206749  -0.995090
    H    0.760400   0.728400   0.578000
    H    2.809900  -0.097900   1.003200
    H    2.817400   1.026800  -0.378600
    H    3.983389  -1.403031  -0.574022
    H    3.163170  -0.672697  -1.941107
    H    2.032563  -2.647740  -0.077443
    H    2.480284  -2.910382  -1.619804
}

set optking { frozen_dihedral = (" 1 2 3 4 ") }

energy, wfn = energy('B3LYP-D3', return_wfn=True)

import os
os.chdir(os.environ['HTMD_PSI4_WORKDIR'])

oeprop(wfn, 'DIPOLE', 'QUADRUPOLE', 'MULLIKEN_CHARGES')

with open('psi4out.xyz', 'w') as f:
    f.write('11 ' )
    f.write('%.12f\n' % energy)
    f.write(MOL.save_string_xyz())
--------------------------------------------------------------------------

    Molecular point group: c1

    Geometry (in Angstrom), charge = 0, multiplicity = 1:

       Center              X                  Y                   Z               Mass
    ------------   -----------------  -----------------  -----------------  -----------------
           O          1.050400000000     0.042900000000    -0.048100000000    15.994914619560
           C          2.474100000000     0.047400000000    -0.029000000000    12.000000000000
           C          3.002600000000    -1.068900000000    -0.932000000000    12.000000000000
           N          2.086730000000    -2.206749000000    -0.995090000000    14.003074004780
           H          0.760400000000     0.728400000000     0.578000000000     1.007825032070
           H          2.809900000000    -0.097900000000     1.003200000000     1.007825032070
           H          2.817400000000     1.026800000000    -0.378600000000     1.007825032070
           H          3.983389000000    -1.403031000000    -0.574022000000     1.007825032070
           H          3.163170000000    -0.672697000000    -1.941107000000     1.007825032070
           H          2.032563000000    -2.647740000000    -0.077443000000     1.007825032070
           H          2.480284000000    -2.910382000000    -1.619804000000     1.007825032070

  Charge       = 0
  Multiplicity = 1
  Basis Set: CC-PVDZ
    Blend: CC-PVDZ
   => B3LYP Composite Functional <=
  Basis Set: (CC-PVDZ AUX)
    Blend: CC-PVDZ-JKFIT

    Orbital Energies (a.u.)
    -----------------------

    Doubly Occupied:

       1A    -19.120183     2A    -14.295619     3A    -10.223290
       4A    -10.201864     5A     -1.004060     6A     -0.868561
       7A     -0.713928     8A     -0.591768     9A     -0.507314
      10A     -0.484025    11A     -0.439762    12A     -0.416068
      13A     -0.387097    14A     -0.361439    15A     -0.317816
      16A     -0.254163    17A     -0.220908

  @DF-RKS Final Energy:  -210.38348394484197

   => Energetics <=

    Nuclear Repulsion Energy =            133.6221506251159781
    One-Electron Energy =                -550.3130117253450635
    Two-Electron Energy =                 229.7997101201447379
    DFT Exchange-Correlation Energy =     -23.4874513047576166
    Empirical Dispersion Energy =          -0.0048816600000000
    PCM Polarization Energy =               0.0000000000000000
    EFP Energy =                            0.0000000000000000
    Total Energy =                       -210.3834839448419700

  Mulliken Charges: (a.u.)
   Center  Symbol    Alpha    Beta     Spin     Total
       1     O     4.13065  4.13065  0.00000 -0.26131
       2     C     2.93354  2.93354  0.00000  0.13292
       3     C     2.98456  2.98456  0.00000  0.03087
       4     N     3.57948  3.57948  0.00000 -0.15895
       5     H     0.43303  0.43303  0.00000  0.13395
       6     H     0.50431  0.50431  0.00000 -0.00861
       7     H     0.50137  0.50137  0.00000 -0.00273
       8     H     0.50615  0.50615  0.00000 -0.01229
       9     H     0.49207  0.49207  0.00000  0.01586
      10     H     0.46753  0.46753  0.00000  0.06494
      11     H     0.46733  0.46733  0.00000  0.06535

   Total alpha = 17.00000, Total beta = 17.00000, Total charge =  0.00000

*** Psi4 exiting successfully. Buy a developer a beer!
