                               Psi4 1.1 release

  ==> Input File <==

--------------------------------------------------------------------------
set_num_threads(1)
set_memory(4203741184)

set { reference rks }
set { basis cc-pVDZ }

molecule MOL {
    0 1
    noreorient
    nocom
    symmetry c1
    O    1.141000   0.017000   0.083000
    C    2.558000   0.086000  -0.005000
    C    3.192000  -0.789000   1.067000
    O    4.610000  -0.719000   0.979000
    H    0.793882   0.801774  -0.375346
    H    2.874000   1.128000   0.115000
    H    2.871000  -0.243000  -1.001000
    H    2.876000  -1.830000   0.947000
    H    2.879000  -0.459000   2.064000
    H    4.961000  -1.293000   1.682000
}

set optking { frozen_dihedral = (" 3 2 1 5 ") }

energy, wfn = energy('B3LYP-D3', return_wfn=True)

import os
os.chdir(os.environ['HTMD_PSI4_WORKDIR'])

oeprop(wfn, 'DIPOLE', 'QUADRUPOLE', 'MULLIKEN_CHARGES')

with open('psi4out.xyz', 'w') as f:
    f.write('10 ' )
    f.write('%.12f\n' % energy)
    f.write(MOL.save_string_xyz())
--------------------------------------------------------------------------

    Molecular point group: c1

    Geometry (in Angstrom), charge = 0, multiplicity = 1:

       Center              X                  Y                   Z               Mass
    ------------   -----------------  -----------------  -----------------  -----------------
           O          1.141000000000     0.017000000000     0.083000000000    15.994914619560
           C          2.558000000000     0.086000000000    -0.005000000000    12.000000000000
           C          3.192000000000    -0.789000000000     1.067000000000    12.000000000000
           O          4.610000000000    -0.719000000000     0.979000000000    15.994914619560
           H          0.793882000000     0.801774000000    -0.375346000000     1.007825032070
           H          2.874000000000     1.128000000000     0.115000000000     1.007825032070
           H          2.871000000000    -0.243000000000    -1.001000000000     1.007825032070
           H          2.876000000000    -1.830000000000     0.947000000000     1.007825032070
           H          2.879000000000    -0.459000000000     2.064000000000     1.007825032070
           H          4.961000000000    -1.293000000000     1.682000000000     1.007825032070

  Charge       = 0
  Multiplicity = 1
  Basis Set: CC-PVDZ
    Blend: CC-PVDZ
   => B3LYP Composite Functional <=
  Basis Set: (CC-PVDZ AUX)
    Blend: CC-PVDZ-JKFIT

    Orbital Energies (a.u.)
    -----------------------

    Doubly Occupied:

       1A    -19.131792     2A    -19.131479     3A    -10.226310
       4A    -10.225812     5A     -1.018876     6A     -1.008574
       7A     -0.732111     8A     -0.603929     9A     -0.526031
      10A     -0.482948    11A     -0.470362    12A     -0.413294
      13A     -0.395195    14A     -0.348772    15A     -0.319625
      16A     -0.264503    17A     -0.263538

  @DF-RKS Final Energy:  -230.25712004782875

   => Energetics <=

    Nuclear Repulsion Energy =            129.4554847274689848
    One-Electron Energy =                -570.6660383872815601
    Two-Electron Energy =                 235.4967112240547920
    DFT Exchange-Correlation Energy =     -24.5388666720709345
    Empirical Dispersion Energy =          -0.0044109400000000
    PCM Polarization Energy =               0.0000000000000000
    EFP Energy =                            0.0000000000000000
    Total Energy =                       -230.2571200478287494

  Mulliken Charges: (a.u.)
   Center  Symbol    Alpha    Beta     Spin     Total
       1     O     4.14034  4.14034  0.00000 -0.28069
       2     C     2.93654  2.93654  0.00000  0.12693
       3     C     2.93619  2.93619  0.00000  0.12761
       4     O     4.14078  4.14078  0.00000 -0.28155
       5     H     0.42713  0.42713  0.00000  0.14574
       6     H     0.49815  0.49815  0.00000  0.00369
       7     H     0.49695  0.49695  0.00000  0.00611
       8     H     0.49734  0.49734  0.00000  0.00531
       9     H     0.49923  0.49923  0.00000  0.00154
      10     H     0.42735  0.42735  0.00000  0.14531

   Total alpha = 17.00000, Total beta = 17.00000, Total charge = -0.00000

*** Psi4 exiting successfully. Buy a developer a beer!
