                               Psi4 1.1 release

  ==> Input File <==

--------------------------------------------------------------------------
set_num_threads(1)
set_memory(4203741184)

set { reference rks }
set { basis cc-pVDZ }

molecule MOL {
    0 1
    noreorient
    nocom
    symmetry c1
    O    1.050400   0.042900  -0.048100
    C    2.474100   0.047400  -0.029000
    C    3.002600  -1.068900  -0.932000
    N    4.462700  -1.072400  -1.006800
    H    0.769322  -0.828584   0.279806
    H    2.809900  -0.097900   1.003200
    H    2.817400   1.026800  -0.378600
    H    2.581000  -0.963300  -1.938400
    H    2.653800  -2.036400  -0.553400
    H    4.779000  -0.221000  -1.470000
    H    4.758600  -1.842500  -1.606500
}

set optking { frozen_dihedral = (" 3 2 1 5 ") }

energy, wfn = energy('B3LYP-D3', return_wfn=True)

import os
os.chdir(os.environ['HTMD_PSI4_WORKDIR'])

oeprop(wfn, 'DIPOLE', 'QUADRUPOLE', 'MULLIKEN_CHARGES')

with open('psi4out.xyz', 'w') as f:
    f.write('11 ' )
    f.write('%.12f\n' % energy)
    f.write(MOL.save_string_xyz())
--------------------------------------------------------------------------

    Molecular point group: c1

    Geometry (in Angstrom), charge = 0, multiplicity = 1:

       Center              X                  Y                   Z               Mass
    ------------   -----------------  -----------------  -----------------  -----------------
           O          1.050400000000     0.042900000000    -0.048100000000    15.994914619560
           C          2.474100000000     0.047400000000    -0.029000000000    12.000000000000
           C          3.002600000000    -1.068900000000    -0.932000000000    12.000000000000
           N          4.462700000000    -1.072400000000    -1.006800000000    14.003074004780
           H          0.769322000000    -0.828584000000     0.279806000000     1.007825032070
           H          2.809900000000    -0.097900000000     1.003200000000     1.007825032070
           H          2.817400000000     1.026800000000    -0.378600000000     1.007825032070
           H          2.581000000000    -0.963300000000    -1.938400000000     1.007825032070
           H          2.653800000000    -2.036400000000    -0.553400000000     1.007825032070
           H          4.779000000000    -0.221000000000    -1.470000000000     1.007825032070
           H          4.758600000000    -1.842500000000    -1.606500000000     1.007825032070

  Charge       = 0
  Multiplicity = 1
  Basis Set: CC-PVDZ
    Blend: CC-PVDZ
   => B3LYP Composite Functional <=
  Basis Set: (CC-PVDZ AUX)
    Blend: CC-PVDZ-JKFIT

    Orbital Energies (a.u.)
    -----------------------

    Doubly Occupied:

       1A    -19.129131     2A    -14.306931     3A    -10.224690
       4A    -10.204708     5A     -1.011693     6A     -0.879214
       7A     -0.711240     8A     -0.611340     9A     -0.500604
      10A     -0.488971    11A     -0.444719    12A     -0.425158
      13A     -0.396564    14A     -0.372009    15A     -0.321011
      16A     -0.264041    17A     -0.233745

  @DF-RKS Final Energy:  -210.39248723322868

   => Energetics <=

    Nuclear Repulsion Energy =            130.8621427837811950
    One-Electron Energy =                -544.5752487700646043
    Two-Electron Energy =                 226.8123318693658632
    DFT Exchange-Correlation Energy =     -23.4865446363111445
    Empirical Dispersion Energy =          -0.0051684800000000
    PCM Polarization Energy =               0.0000000000000000
    EFP Energy =                            0.0000000000000000
    Total Energy =                       -210.3924872332286782

  Mulliken Charges: (a.u.)
   Center  Symbol    Alpha    Beta     Spin     Total
       1     O     4.13925  4.13925  0.00000 -0.27850
       2     C     2.92001  2.92001  0.00000  0.15997
       3     C     2.99683  2.99683  0.00000  0.00634
       4     N     3.59298  3.59298  0.00000 -0.18597
       5     H     0.43124  0.43124  0.00000  0.13753
       6     H     0.49720  0.49720  0.00000  0.00560
       7     H     0.49259  0.49259  0.00000  0.01481
       8     H     0.50140  0.50140  0.00000 -0.00279
       9     H     0.49967  0.49967  0.00000  0.00066
      10     H     0.46453  0.46453  0.00000  0.07095
      11     H     0.46430  0.46430  0.00000  0.07140

   Total alpha = 17.00000, Total beta = 17.00000, Total charge =  0.00000

*** Psi4 exiting successfully. Buy a developer a beer!
