                               Psi4 1.1 release

  ==> Input File <==

--------------------------------------------------------------------------
set {
	reference rks
	basis cc-pvdz
}

set_num_threads( 8 )
memory 2 gb

molecule MOL {
0 1

O	 1.014300	 -0.002300	 0.060500
O	 2.462400	 -0.107500	 -0.002400
H	 0.888784	 -0.628421	 0.798890
H	 2.655500	 0.713700	 0.488700

	symmetry c1
}
set optking { dynamic_level = 1 }
set optking {
	frozen_dihedral = ("
		3 1 2 4
	")
}

ee,wfn = optimize('b3lyp-d3', return_wfn=True)
oeprop( wfn, 'DIPOLE', 'QUADRUPOLE', 'MULLIKEN_CHARGES')
f=open( 'psi4out.xyz', 'w' )
f.write( "4  " )
f.write( str(ee) + "\n" )
f.write( MOL.save_string_xyz() )
f.close()
--------------------------------------------------------------------------

    Molecular point group: c1
  Charge       = 0
  Multiplicity = 1
  Basis Set: CC-PVDZ
    Blend: CC-PVDZ
   => B3LYP Composite Functional <=
  Basis Set: (CC-PVDZ AUX)
    Blend: CC-PVDZ-JKFIT
  @DF-RKS Final Energy:  -151.54952881476547
    Total Energy =                       -151.5495288147654662
    Molecular point group: c1
  Basis Set: CC-PVDZ
    Blend: CC-PVDZ
  Basis Set: (CC-PVDZ AUX)
    Blend: CC-PVDZ-JKFIT
   => B3LYP Composite Functional <=
  Basis Set: CC-PVDZ
    Blend: CC-PVDZ
   => B3LYP Composite Functional <=
  Basis Set: (CC-PVDZ AUX)
    Blend: CC-PVDZ-JKFIT
  @DF-RKS Final Energy:  -151.55029848520044
    Total Energy =                       -151.5502984852004147
  Basis Set: CC-PVDZ
    Blend: CC-PVDZ
  Basis Set: (CC-PVDZ AUX)
  @DF-RKS Final Energy:  -151.55073869921290
    Total Energy =                       -151.5507386992128716
   => B3LYP Composite Functional <=
  Basis Set: (CC-PVDZ AUX)
    Blend: CC-PVDZ-JKFIT
  @DF-RKS Final Energy:  -151.55075039663296
    Total Energy =                       -151.5507503966329921
  Basis Set: CC-PVDZ
    Blend: CC-PVDZ
  Basis Set: (CC-PVDZ AUX)
    Blend: CC-PVDZ-JKFIT
   => B3LYP Composite Functional <=
  Charge       = 0
  Multiplicity = 1
  Basis Set: CC-PVDZ
    Blend: CC-PVDZ
   => B3LYP Composite Functional <=
  Basis Set: (CC-PVDZ AUX)
    Blend: CC-PVDZ-JKFIT

    Orbital Energies (a.u.)
    -----------------------

    Doubly Occupied:

       1A    -19.188222     2A    -19.188183     3A     -1.110774
       4A     -0.888964     5A     -0.530254     6A     -0.473146
       7A     -0.412901     8A     -0.296964     9A     -0.280991

  @DF-RKS Final Energy:  -151.55075133319278

   => Energetics <=

    Nuclear Repulsion Energy =             36.7689537416779828
    One-Electron Energy =                -281.5144025832832995
    Two-Electron Energy =                 107.6568961864659997
    DFT Exchange-Correlation Energy =     -14.4618489180534375
    Empirical Dispersion Energy =          -0.0003497600000000
    PCM Polarization Energy =               0.0000000000000000
    EFP Energy =                            0.0000000000000000
    Total Energy =                       -151.5507513331927782
    Molecular point group: c1
  Basis Set: CC-PVDZ
    Blend: CC-PVDZ
  Basis Set: (CC-PVDZ AUX)
    Blend: CC-PVDZ-JKFIT
   => B3LYP Composite Functional <=

  -Total Gradient:
     Atom            X                  Y                   Z
    ------   -----------------  -----------------  -----------------
       1       -0.000074494941    -0.001383624590    -0.000952416014
       2       -0.000051346855     0.001020270973    -0.001335443623
       3        0.000104414656     0.001144462861     0.000989759170
       4        0.000021535688    -0.000780794453     0.001300082321

  **** Optimization is complete! (in 5 steps) ****
    Final optimized geometry and variables:
    Molecular point group: c1

    Geometry (in Angstrom), charge = 0, multiplicity = 1:

    O           -0.724896807189     0.023743944759    -0.000890123171
    O            0.720941649838    -0.035160756303    -0.071040944185
    H           -0.897713389417    -0.596115011387     0.730879810365
    H            0.960484606778     0.777308095561     0.410718427661

  Mulliken Charges: (a.u.)
   Center  Symbol    Alpha    Beta     Spin     Total
       1     O     4.08843  4.08843  0.00000 -0.17685
       2     O     4.08843  4.08843  0.00000 -0.17685
       3     H     0.41157  0.41157  0.00000  0.17685
       4     H     0.41157  0.41157  0.00000  0.17685

   Total alpha =  9.00000, Total beta =  9.00000, Total charge =  0.00000

*** Psi4 exiting successfully. Buy a developer a beer!
