                               Psi4 1.1 release

  ==> Input File <==

--------------------------------------------------------------------------
set_num_threads( 8 )
memory 2.000000 gb

set { reference rks }
set { basis cc-pVDZ }

molecule MOL {
    0 1
    noreorient
    nocom
    symmetry c1
    O    1.141000   0.017000   0.083000
    C    2.558000   0.086000  -0.005000
    C    3.192000  -0.789000   1.067000
    O    4.610000  -0.719000   0.979000
    H    0.789000   0.590000  -0.620000
    H    2.874000   1.128000   0.115000
    H    2.871000  -0.243000  -1.001000
    H    2.876000  -1.830000   0.947000
    H    2.879000  -0.459000   2.064000
    H    4.831419   0.209308   0.788988
}

set optking { frozen_dihedral = (" 1 2 3 4, 2 3 4 10 ") }

energy, wfn = energy('B3LYP-D3', return_wfn=True)

import os
os.chdir(os.environ['HTMD_PSI4_WORKDIR'])

oeprop(wfn, 'DIPOLE', 'QUADRUPOLE', 'MULLIKEN_CHARGES')

with open('psi4out.xyz', 'w') as f:
    f.write('10 ' )
    f.write('%.12f\n' % energy)
    f.write(MOL.save_string_xyz())
--------------------------------------------------------------------------

    Molecular point group: c1

    Geometry (in Angstrom), charge = 0, multiplicity = 1:

       Center              X                  Y                   Z               Mass
    ------------   -----------------  -----------------  -----------------  -----------------
           O          1.141000000000     0.017000000000     0.083000000000    15.994914619560
           C          2.558000000000     0.086000000000    -0.005000000000    12.000000000000
           C          3.192000000000    -0.789000000000     1.067000000000    12.000000000000
           O          4.610000000000    -0.719000000000     0.979000000000    15.994914619560
           H          0.789000000000     0.590000000000    -0.620000000000     1.007825032070
           H          2.874000000000     1.128000000000     0.115000000000     1.007825032070
           H          2.871000000000    -0.243000000000    -1.001000000000     1.007825032070
           H          2.876000000000    -1.830000000000     0.947000000000     1.007825032070
           H          2.879000000000    -0.459000000000     2.064000000000     1.007825032070
           H          4.831419000000     0.209308000000     0.788988000000     1.007825032070

  Charge       = 0
  Multiplicity = 1
  Basis Set: CC-PVDZ
    Blend: CC-PVDZ
   => B3LYP Composite Functional <=
  Basis Set: (CC-PVDZ AUX)
    Blend: CC-PVDZ-JKFIT

    Orbital Energies (a.u.)
    -----------------------

    Doubly Occupied:

       1A    -19.137113     2A    -19.134167     3A    -10.233378
       4A    -10.227122     5A     -1.024061     6A     -1.011908
       7A     -0.732672     8A     -0.622211     9A     -0.518113
      10A     -0.493834    11A     -0.464222    12A     -0.426782
      13A     -0.398803    14A     -0.350594    15A     -0.324076
      16A     -0.270846    17A     -0.267422

  @DF-RKS Final Energy:  -230.25775720732642

   => Energetics <=

    Nuclear Repulsion Energy =            130.0222126951923087
    One-Electron Energy =                -571.6527877677572178
    Two-Electron Energy =                 235.9154710689263652
    DFT Exchange-Correlation Energy =     -24.5380091436878729
    Empirical Dispersion Energy =          -0.0046440600000000
    PCM Polarization Energy =               0.0000000000000000
    EFP Energy =                            0.0000000000000000
    Total Energy =                       -230.2577572073264207

  Mulliken Charges: (a.u.)
   Center  Symbol    Alpha    Beta     Spin     Total
       1     O     4.13797  4.13797  0.00000 -0.27594
       2     C     2.95447  2.95447  0.00000  0.09106
       3     C     2.92265  2.92265  0.00000  0.15471
       4     O     4.13819  4.13819  0.00000 -0.27638
       5     H     0.42805  0.42805  0.00000  0.14389
       6     H     0.50559  0.50559  0.00000 -0.01118
       7     H     0.49787  0.49787  0.00000  0.00426
       8     H     0.48662  0.48662  0.00000  0.02677
       9     H     0.49648  0.49648  0.00000  0.00705
      10     H     0.43212  0.43212  0.00000  0.13576

   Total alpha = 17.00000, Total beta = 17.00000, Total charge =  0.00000

*** Psi4 exiting successfully. Buy a developer a beer!
