                               Psi4 1.1 release

  ==> Input File <==

--------------------------------------------------------------------------
set_num_threads(1)
set_memory(4203741184)

set { reference rks }
set { basis cc-pVDZ }

molecule MOL {
    0 1
    noreorient
    nocom
    symmetry c1
    O    1.050400   0.042900  -0.048100
    C    2.474100   0.047400  -0.029000
    C    3.002600  -1.068900  -0.932000
    N    4.462700  -1.072400  -1.006800
    H    0.760400   0.728400   0.578000
    H    2.809900  -0.097900   1.003200
    H    2.817400   1.026800  -0.378600
    H    2.581000  -0.963300  -1.938400
    H    2.653800  -2.036400  -0.553400
    H    4.799119  -2.034739  -0.992399
    H    4.835364  -0.634105  -0.164618
}

set optking { frozen_dihedral = (" 2 3 4 10 ") }

energy, wfn = energy('B3LYP-D3', return_wfn=True)

import os
os.chdir(os.environ['HTMD_PSI4_WORKDIR'])

oeprop(wfn, 'DIPOLE', 'QUADRUPOLE', 'MULLIKEN_CHARGES')

with open('psi4out.xyz', 'w') as f:
    f.write('11 ' )
    f.write('%.12f\n' % energy)
    f.write(MOL.save_string_xyz())
--------------------------------------------------------------------------

    Molecular point group: c1

    Geometry (in Angstrom), charge = 0, multiplicity = 1:

       Center              X                  Y                   Z               Mass
    ------------   -----------------  -----------------  -----------------  -----------------
           O          1.050400000000     0.042900000000    -0.048100000000    15.994914619560
           C          2.474100000000     0.047400000000    -0.029000000000    12.000000000000
           C          3.002600000000    -1.068900000000    -0.932000000000    12.000000000000
           N          4.462700000000    -1.072400000000    -1.006800000000    14.003074004780
           H          0.760400000000     0.728400000000     0.578000000000     1.007825032070
           H          2.809900000000    -0.097900000000     1.003200000000     1.007825032070
           H          2.817400000000     1.026800000000    -0.378600000000     1.007825032070
           H          2.581000000000    -0.963300000000    -1.938400000000     1.007825032070
           H          2.653800000000    -2.036400000000    -0.553400000000     1.007825032070
           H          4.799119000000    -2.034739000000    -0.992399000000     1.007825032070
           H          4.835364000000    -0.634105000000    -0.164618000000     1.007825032070

  Charge       = 0
  Multiplicity = 1
  Basis Set: CC-PVDZ
    Blend: CC-PVDZ
   => B3LYP Composite Functional <=
  Basis Set: (CC-PVDZ AUX)
    Blend: CC-PVDZ-JKFIT

    Orbital Energies (a.u.)
    -----------------------

    Doubly Occupied:

       1A    -19.130391     2A    -14.303717     3A    -10.229359
       4A    -10.201214     5A     -1.012807     6A     -0.877345
       7A     -0.712859     8A     -0.602674     9A     -0.509037
      10A     -0.477076    11A     -0.469075    12A     -0.410729
      13A     -0.382017    14A     -0.374127    15A     -0.325840
      16A     -0.264259    17A     -0.229234

  @DF-RKS Final Energy:  -210.38814010882496

   => Energetics <=

    Nuclear Repulsion Energy =            130.6640189109324410
    One-Electron Energy =                -544.1981311597395461
    Two-Electron Energy =                 226.6383470457159035
    DFT Exchange-Correlation Energy =     -23.4874580557337644
    Empirical Dispersion Energy =          -0.0049168500000000
    PCM Polarization Energy =               0.0000000000000000
    EFP Energy =                            0.0000000000000000
    Total Energy =                       -210.3881401088249561

  Mulliken Charges: (a.u.)
   Center  Symbol    Alpha    Beta     Spin     Total
       1     O     4.13742  4.13742  0.00000 -0.27484
       2     C     2.94102  2.94102  0.00000  0.11796
       3     C     2.97764  2.97764  0.00000  0.04473
       4     N     3.59228  3.59228  0.00000 -0.18455
       5     H     0.43004  0.43004  0.00000  0.13992
       6     H     0.50339  0.50339  0.00000 -0.00677
       7     H     0.49699  0.49699  0.00000  0.00601
       8     H     0.48972  0.48972  0.00000  0.02057
       9     H     0.49928  0.49928  0.00000  0.00144
      10     H     0.46300  0.46300  0.00000  0.07400
      11     H     0.46922  0.46922  0.00000  0.06155

   Total alpha = 17.00000, Total beta = 17.00000, Total charge = -0.00000

*** Psi4 exiting successfully. Buy a developer a beer!
