                               Psi4 1.1 release

  ==> Input File <==

--------------------------------------------------------------------------
set_num_threads(1)
set_memory('2004 MB')

set { scf_mem_safety_factor 0.7 }

set { reference rks }
set { basis cc-pVDZ }

molecule MOL {
    0 1
    noreorient
    nocom
    symmetry c1
    O    1.141000   0.017000   0.083000
    C    2.558000   0.086000  -0.005000
    C    3.192000  -0.789000   1.067000
    O    4.610000  -0.719000   0.979000
    H    0.789000   0.590000  -0.620000
    H    2.874000   1.128000   0.115000
    H    2.871000  -0.243000  -1.001000
    H    2.876000  -1.830000   0.947000
    H    2.879000  -0.459000   2.064000
    H    4.839226  -0.881236   0.047324
}

set optking { frozen_dihedral = (" 2 3 4 10 ") }

energy, wfn = energy('B3LYP-D3', return_wfn=True)

import os
os.chdir(os.environ['HTMD_PSI4_WORKDIR'])

oeprop(wfn, 'DIPOLE', 'QUADRUPOLE', 'MULLIKEN_CHARGES')

with open('psi4out.xyz', 'w') as f:
    f.write('10 ' )
    f.write('%.12f\n' % energy)
    f.write(MOL.save_string_xyz())
--------------------------------------------------------------------------

    Molecular point group: c1

    Geometry (in Angstrom), charge = 0, multiplicity = 1:

       Center              X                  Y                   Z               Mass
    ------------   -----------------  -----------------  -----------------  -----------------
           O          1.141000000000     0.017000000000     0.083000000000    15.994914619560
           C          2.558000000000     0.086000000000    -0.005000000000    12.000000000000
           C          3.192000000000    -0.789000000000     1.067000000000    12.000000000000
           O          4.610000000000    -0.719000000000     0.979000000000    15.994914619560
           H          0.789000000000     0.590000000000    -0.620000000000     1.007825032070
           H          2.874000000000     1.128000000000     0.115000000000     1.007825032070
           H          2.871000000000    -0.243000000000    -1.001000000000     1.007825032070
           H          2.876000000000    -1.830000000000     0.947000000000     1.007825032070
           H          2.879000000000    -0.459000000000     2.064000000000     1.007825032070
           H          4.839226000000    -0.881236000000     0.047324000000     1.007825032070

  Charge       = 0
  Multiplicity = 1
  Basis Set: CC-PVDZ
    Blend: CC-PVDZ
   => B3LYP Composite Functional <=
  Basis Set: (CC-PVDZ AUX)
    Blend: CC-PVDZ-JKFIT

    Orbital Energies (a.u.)
    -----------------------

    Doubly Occupied:

       1A    -19.135820     2A    -19.134634     3A    -10.231353
       4A    -10.227221     5A     -1.023270     6A     -1.011581
       7A     -0.732205     8A     -0.620176     9A     -0.518388
      10A     -0.495177    11A     -0.459953    12A     -0.428211
      13A     -0.398476    14A     -0.348122    15A     -0.324264
      16A     -0.269554    17A     -0.268316

  @DF-RKS Final Energy:  -230.25836718955799

   => Energetics <=

    Nuclear Repulsion Energy =            129.9633559865107770
    One-Electron Energy =                -571.5575048481380236
    Two-Electron Energy =                 235.8783468498050695
    DFT Exchange-Correlation Energy =     -24.5379170877358490
    Empirical Dispersion Energy =          -0.0046480900000000
    PCM Polarization Energy =               0.0000000000000000
    EFP Energy =                            0.0000000000000000
    Total Energy =                       -230.2583671895579869

  Mulliken Charges: (a.u.)
   Center  Symbol    Alpha    Beta     Spin     Total
       1     O     4.13865  4.13865  0.00000 -0.27731
       2     C     2.95098  2.95098  0.00000  0.09805
       3     C     2.92458  2.92458  0.00000  0.15085
       4     O     4.13865  4.13865  0.00000 -0.27730
       5     H     0.42810  0.42810  0.00000  0.14380
       6     H     0.49782  0.49782  0.00000  0.00435
       7     H     0.50686  0.50686  0.00000 -0.01372
       8     H     0.49683  0.49683  0.00000  0.00634
       9     H     0.48583  0.48583  0.00000  0.02834
      10     H     0.43170  0.43170  0.00000  0.13661

   Total alpha = 17.00000, Total beta = 17.00000, Total charge = -0.00000

*** Psi4 exiting successfully. Buy a developer a beer!
