                               Psi4 1.1 release

  ==> Input File <==

--------------------------------------------------------------------------
set_num_threads(1)
set_memory(3145728000)

set { reference rks }
set { basis 6-31G* }

molecule MOL {
    1 1
    noreorient
    nocom
    symmetry c1
    C    0.000000   0.000000  -0.177864
    C    0.036678   1.219374   0.524165
    C    0.031764   1.213119   1.915444
    C   -0.000000  -0.000000   2.610107
    C   -0.031764  -1.213119   1.915444
    C   -0.036677  -1.219374   0.524165
    C    0.000000  -0.000000  -1.644734
    H    0.018170   2.164705  -0.010853
    H    0.042402   2.152895   2.457886
    H   -0.000000  -0.000000   3.695756
    H   -0.042402  -2.152895   2.457886
    H   -0.018170  -2.164705  -0.010853
    N   -0.712590  -0.905950  -2.308460
    N    0.712590   0.905950  -2.308461
    H    0.673432   1.006469  -3.315997
    H    1.377190   1.485970  -1.813317
    H   -1.614534  -0.655553  -2.691971
    H   -0.366905  -1.836391  -2.512293
}

set optking { frozen_dihedral = (" 1 7 13 17 ") }

set optking { dynamic_level = 1
 geom_maxiter = 250
 print_trajectory_xyz_file = True }

energy, wfn = optimize('B3LYP-D3', return_wfn=True)

import os
os.chdir(os.environ['HTMD_PSI4_WORKDIR'])

oeprop(wfn, 'DIPOLE', 'QUADRUPOLE', 'MULLIKEN_CHARGES')

with open('psi4out.xyz', 'w') as f:
    f.write('18 ' )
    f.write('%.12f\n' % energy)
    f.write(MOL.save_string_xyz())
--------------------------------------------------------------------------

    Molecular point group: c1
  Charge       = 1
  Multiplicity = 1
  Basis Set: 6-31G*
    Blend: 6-31G*
   => B3LYP Composite Functional <=
  Basis Set: (6-31G* AUX)
    Blend: CC-PVDZ-JKFIT
  @DF-RKS Final Energy:  -381.42448718202763
    Total Energy =                       -381.4244871820275762
    Molecular point group: c1
  Basis Set: 6-31G*
    Blend: 6-31G*
  Basis Set: (6-31G* AUX)
    Blend: CC-PVDZ-JKFIT
   => B3LYP Composite Functional <=
  Basis Set: 6-31G*
    Blend: 6-31G*
   => B3LYP Composite Functional <=
  Basis Set: (6-31G* AUX)
    Blend: CC-PVDZ-JKFIT
  @DF-RKS Final Energy:  -381.43059218257628
    Total Energy =                       -381.4305921825762766
  Basis Set: 6-31G*
    Blend: 6-31G*
  Basis Set: (6-31G* AUX)
  @DF-RKS Final Energy:  -381.43373016859005
    Total Energy =                       -381.4337301685899888
  @DF-RKS Final Energy:  -381.43764317840521
    Total Energy =                       -381.4376431784051533
  @DF-RKS Final Energy:  -381.44100421563337
    Total Energy =                       -381.4410042156333702
  @DF-RKS Final Energy:  -381.43764317840436
    Total Energy =                       -381.4376431784043575
  @DF-RKS Final Energy:  -381.44044313778670
    Total Energy =                       -381.4404431377866445
  @DF-RKS Final Energy:  -381.44293740501695
    Total Energy =                       -381.4429374050169486
  @DF-RKS Final Energy:  -381.44530926091733
    Total Energy =                       -381.4453092609173268
  @DF-RKS Final Energy:  -381.44746710597587
    Total Energy =                       -381.4474671059758748
  @DF-RKS Final Energy:  -381.44924640457049
    Total Energy =                       -381.4492464045704878
  @DF-RKS Final Energy:  -381.45057959420950
    Total Energy =                       -381.4505795942095006
  @DF-RKS Final Energy:  -381.45158972514633
    Total Energy =                       -381.4515897251463343
  @DF-RKS Final Energy:  -381.45233971961210
    Total Energy =                       -381.4523397196120982
  @DF-RKS Final Energy:  -381.45275170925242
    Total Energy =                       -381.4527517092524249
  @DF-RKS Final Energy:  -381.45281997712692
    Total Energy =                       -381.4528199771269215
  @DF-RKS Final Energy:  -381.45282805197843
    Total Energy =                       -381.4528280519784857
  @DF-RKS Final Energy:  -381.45282988365886
    Total Energy =                       -381.4528298836588647
  @DF-RKS Final Energy:  -381.45282964825810
    Total Energy =                       -381.4528296482581595
  @DF-RKS Final Energy:  -381.45282917121165
    Total Energy =                       -381.4528291712116470
  @DF-RKS Final Energy:  -381.45282959511343
    Total Energy =                       -381.4528295951134282
   => B3LYP Composite Functional <=
  Basis Set: (6-31G* AUX)
    Blend: CC-PVDZ-JKFIT
  @DF-RKS Final Energy:  -381.45282964825759
    Total Energy =                       -381.4528296482575911
  Basis Set: 6-31G*
    Blend: 6-31G*
  Basis Set: (6-31G* AUX)
    Blend: CC-PVDZ-JKFIT
   => B3LYP Composite Functional <=
  Charge       = 1
  Multiplicity = 1
  Basis Set: 6-31G*
    Blend: 6-31G*
   => B3LYP Composite Functional <=
  Basis Set: (6-31G* AUX)
    Blend: CC-PVDZ-JKFIT

    Orbital Energies (a.u.)
    -----------------------

    Doubly Occupied:

       1A    -14.577425     2A    -14.541587     3A    -10.496912
       4A    -10.379802     5A    -10.366530     6A    -10.365798
       7A    -10.355014     8A    -10.349189     9A    -10.349006
      10A     -1.179173    11A     -1.081888    12A     -1.022028
      13A     -0.931927    14A     -0.911238    15A     -0.843184
      16A     -0.785059    17A     -0.773172    18A     -0.739895
      19A     -0.721072    20A     -0.680880    21A     -0.673955
      22A     -0.636526    23A     -0.613991    24A     -0.591067
      25A     -0.585980    26A     -0.563591    27A     -0.524455
      28A     -0.515243    29A     -0.506040    30A     -0.468110
      31A     -0.422076    32A     -0.414736

  @DF-RKS Final Energy:  -381.45283044119770

   => Energetics <=

    Nuclear Repulsion Energy =            416.2423317520654678
    One-Electron Energy =               -1327.5172732469522998
    Two-Electron Energy =                 574.2277131159302144
    DFT Exchange-Correlation Energy =     -44.3935460622410432
    Empirical Dispersion Energy =          -0.0120560000000000
    PCM Polarization Energy =               0.0000000000000000
    EFP Energy =                            0.0000000000000000
    Total Energy =                       -381.4528304411977047
    Molecular point group: c1
  Basis Set: 6-31G*
    Blend: 6-31G*
  Basis Set: (6-31G* AUX)
    Blend: CC-PVDZ-JKFIT
   => B3LYP Composite Functional <=

  -Total Gradient:
     Atom            X                  Y                   Z
    ------   -----------------  -----------------  -----------------
       1       -0.010192274783    -0.000252593245    -0.000114526105
       2        0.000012205492     0.000022836857     0.000043455453
       3       -0.000001731986     0.000010034512     0.000001817393
       4       -0.000000823941    -0.000000537635     0.000006486162
       5       -0.000008151653     0.000001718243    -0.000014740542
       6        0.000008514591     0.000006602666     0.000012419137
       7        0.015503332834    -0.002120524772     0.003685641858
       8        0.000002723815     0.000007380610    -0.000001650094
       9        0.000004832241    -0.000000059508     0.000012736812
      10        0.000003178614    -0.000002901743     0.000002112856
      11       -0.000001600178    -0.000001784234    -0.000005354432
      12        0.000014265906     0.000005807080    -0.000005297768
      13       -0.003089094202     0.009897410943    -0.014364071957
      14       -0.000010267695     0.000038942103    -0.000049975203
      15       -0.000012993835    -0.000009703375    -0.000013765954
      16       -0.000029356824     0.000015785349     0.000008524017
      17       -0.002221565000    -0.007563216316     0.010800958064
      18        0.000005510171    -0.000063564808    -0.000027289010

  **** Optimization is complete! (in 2 steps) ****
    Final optimized geometry and variables:
    Molecular point group: c1

    Geometry (in Angstrom), charge = 1, multiplicity = 1:

    C            0.086858757414     0.016856278600    -0.202528623976
    C            0.564194528532     1.119091888955     0.541689803590
    C            0.504198716709     1.096985776740     1.928459582573
    C           -0.024726758355    -0.020583129802     2.586237953809
    C           -0.487401557077    -1.122130288230     1.858315593583
    C           -0.424415804513    -1.113399072254     0.470180410199
    C            0.097335597685     0.040675139646    -1.656002295259
    H            1.025619405625     1.964267502442     0.038009006077
    H            0.882207660803     1.938038599609     2.500387206151
    H           -0.069586316122    -0.035028698699     3.670993283619
    H           -0.900168319138    -1.982809979741     2.374229881986
    H           -0.812573572502    -1.958428499655    -0.089862376403
    N            0.131428762381    -1.088969295614    -2.438108919969
    N           -0.054589084288     1.176901985629    -2.316283542274
    H            0.040064862984     1.193948966193    -3.326972181759
    H           -0.280020714640     2.044196189978    -1.843481017661
    H           -0.760665645277    -1.386560101085    -2.828941163130
    H            0.551493453491    -1.882513550407    -1.960152512232

  Mulliken Charges: (a.u.)
   Center  Symbol    Alpha    Beta     Spin     Total
       1     C     2.93888  2.93888  0.00000  0.12224
       2     C     3.08304  3.08304  0.00000 -0.16607
       3     C     3.06173  3.06173  0.00000 -0.12346
       4     C     3.04952  3.04952  0.00000 -0.09905
       5     C     3.06184  3.06184  0.00000 -0.12367
       6     C     3.07890  3.07890  0.00000 -0.15780
       7     C     2.76999  2.76999  0.00000  0.46001
       8     H     0.41255  0.41255  0.00000  0.17490
       9     H     0.40293  0.40293  0.00000  0.19415
      10     H     0.40078  0.40078  0.00000  0.19843
      11     H     0.40311  0.40311  0.00000  0.19378
      12     H     0.41846  0.41846  0.00000  0.16308
      13     N     3.86583  3.86583  0.00000 -0.73167
      14     N     3.83737  3.83737  0.00000 -0.67473
      15     H     0.29753  0.29753  0.00000  0.40493
      16     H     0.30076  0.30076  0.00000  0.39847
      17     H     0.30442  0.30442  0.00000  0.39115
      18     H     0.31235  0.31235  0.00000  0.37530

   Total alpha = 32.00000, Total beta = 32.00000, Total charge =  1.00000

*** Psi4 exiting successfully. Buy a developer a beer!
