                               Psi4 1.1 release

  ==> Input File <==

--------------------------------------------------------------------------
set_num_threads(1)
set_memory(4203741184)

set { reference rks }
set { basis cc-pVDZ }

molecule MOL {
    0 1
    noreorient
    nocom
    symmetry c1
    O    1.050400   0.042900  -0.048100
    C    2.474100   0.047400  -0.029000
    C    3.002600  -1.068900  -0.932000
    N    4.462700  -1.072400  -1.006800
    H    0.760400   0.728400   0.578000
    H    2.809900  -0.097900   1.003200
    H    2.817400   1.026800  -0.378600
    H    2.581000  -0.963300  -1.938400
    H    2.653800  -2.036400  -0.553400
    H    4.767609  -1.830092  -1.617058
    H    4.837941  -1.289719  -0.083643
}

set optking { frozen_dihedral = (" 2 3 4 10 ") }

energy, wfn = energy('B3LYP-D3', return_wfn=True)

import os
os.chdir(os.environ['HTMD_PSI4_WORKDIR'])

oeprop(wfn, 'DIPOLE', 'QUADRUPOLE', 'MULLIKEN_CHARGES')

with open('psi4out.xyz', 'w') as f:
    f.write('11 ' )
    f.write('%.12f\n' % energy)
    f.write(MOL.save_string_xyz())
--------------------------------------------------------------------------

    Molecular point group: c1

    Geometry (in Angstrom), charge = 0, multiplicity = 1:

       Center              X                  Y                   Z               Mass
    ------------   -----------------  -----------------  -----------------  -----------------
           O          1.050400000000     0.042900000000    -0.048100000000    15.994914619560
           C          2.474100000000     0.047400000000    -0.029000000000    12.000000000000
           C          3.002600000000    -1.068900000000    -0.932000000000    12.000000000000
           N          4.462700000000    -1.072400000000    -1.006800000000    14.003074004780
           H          0.760400000000     0.728400000000     0.578000000000     1.007825032070
           H          2.809900000000    -0.097900000000     1.003200000000     1.007825032070
           H          2.817400000000     1.026800000000    -0.378600000000     1.007825032070
           H          2.581000000000    -0.963300000000    -1.938400000000     1.007825032070
           H          2.653800000000    -2.036400000000    -0.553400000000     1.007825032070
           H          4.767609000000    -1.830092000000    -1.617058000000     1.007825032070
           H          4.837941000000    -1.289719000000    -0.083643000000     1.007825032070

  Charge       = 0
  Multiplicity = 1
  Basis Set: CC-PVDZ
    Blend: CC-PVDZ
   => B3LYP Composite Functional <=
  Basis Set: (CC-PVDZ AUX)
    Blend: CC-PVDZ-JKFIT

    Orbital Energies (a.u.)
    -----------------------

    Doubly Occupied:

       1A    -19.127073     2A    -14.304951     3A    -10.223833
       4A    -10.201798     5A     -1.009436     6A     -0.876885
       7A     -0.712146     8A     -0.597042     9A     -0.506409
      10A     -0.484123    11A     -0.458225    12A     -0.412099
      13A     -0.389007    14A     -0.364733    15A     -0.323269
      16A     -0.260540    17A     -0.230899

  @DF-RKS Final Energy:  -210.39111423919289

   => Energetics <=

    Nuclear Repulsion Energy =            130.4132675816539972
    One-Electron Energy =                -543.7618487490610732
    Two-Electron Energy =                 226.4487535358817070
    DFT Exchange-Correlation Energy =     -23.4863692376675424
    Empirical Dispersion Energy =          -0.0049173700000000
    PCM Polarization Energy =               0.0000000000000000
    EFP Energy =                            0.0000000000000000
    Total Energy =                       -210.3911142391928877

  Mulliken Charges: (a.u.)
   Center  Symbol    Alpha    Beta     Spin     Total
       1     O     4.13926  4.13926  0.00000 -0.27853
       2     C     2.92993  2.92993  0.00000  0.14014
       3     C     2.98464  2.98464  0.00000  0.03073
       4     N     3.59290  3.59290  0.00000 -0.18581
       5     H     0.42982  0.42982  0.00000  0.14036
       6     H     0.50471  0.50471  0.00000 -0.00942
       7     H     0.49817  0.49817  0.00000  0.00367
       8     H     0.48936  0.48936  0.00000  0.02129
       9     H     0.50165  0.50165  0.00000 -0.00330
      10     H     0.46332  0.46332  0.00000  0.07337
      11     H     0.46625  0.46625  0.00000  0.06749

   Total alpha = 17.00000, Total beta = 17.00000, Total charge =  0.00000

*** Psi4 exiting successfully. Buy a developer a beer!
