                               Psi4 1.1 release

  ==> Input File <==

--------------------------------------------------------------------------
set_num_threads(1)
set_memory(3145728000)

set { reference rks }
set { basis 6-31G* }

molecule MOL {
    1 1
    noreorient
    nocom
    symmetry c1
    C    0.000000   0.000000  -0.177864
    C    0.036678   1.219374   0.524165
    C    0.031764   1.213119   1.915444
    C   -0.000000  -0.000000   2.610107
    C   -0.031764  -1.213119   1.915444
    C   -0.036677  -1.219374   0.524165
    C    0.000000  -0.000000  -1.644734
    H    0.018170   2.164705  -0.010853
    H    0.042402   2.152895   2.457886
    H   -0.000000  -0.000000   3.695756
    H   -0.042402  -2.152895   2.457886
    H   -0.018170  -2.164705  -0.010853
    N   -0.712590  -0.905950  -2.308460
    N    0.712590   0.905950  -2.308461
    H    0.673432   1.006469  -3.315997
    H    1.377190   1.485970  -1.813317
    H   -1.561645  -1.276077  -1.901773
    H   -0.482495  -1.206076  -3.248539
}

set optking { frozen_dihedral = (" 1 7 13 17 ") }

set optking { dynamic_level = 1
 geom_maxiter = 250
 print_trajectory_xyz_file = True }

energy, wfn = optimize('B3LYP-D3', return_wfn=True)

import os
os.chdir(os.environ['HTMD_PSI4_WORKDIR'])

oeprop(wfn, 'DIPOLE', 'QUADRUPOLE', 'MULLIKEN_CHARGES')

with open('psi4out.xyz', 'w') as f:
    f.write('18 ' )
    f.write('%.12f\n' % energy)
    f.write(MOL.save_string_xyz())
--------------------------------------------------------------------------

    Molecular point group: c1
  Charge       = 1
  Multiplicity = 1
  Basis Set: 6-31G*
    Blend: 6-31G*
   => B3LYP Composite Functional <=
  Basis Set: (6-31G* AUX)
    Blend: CC-PVDZ-JKFIT
  @DF-RKS Final Energy:  -381.46662028794367
    Total Energy =                       -381.4666202879436696
    Molecular point group: c1
  Basis Set: 6-31G*
    Blend: 6-31G*
  Basis Set: (6-31G* AUX)
    Blend: CC-PVDZ-JKFIT
   => B3LYP Composite Functional <=
  Basis Set: 6-31G*
    Blend: 6-31G*
   => B3LYP Composite Functional <=
  Basis Set: (6-31G* AUX)
    Blend: CC-PVDZ-JKFIT
  @DF-RKS Final Energy:  -381.46849263263158
    Total Energy =                       -381.4684926326316372
  Basis Set: 6-31G*
    Blend: 6-31G*
  Basis Set: (6-31G* AUX)
  @DF-RKS Final Energy:  -381.46900768820007
    Total Energy =                       -381.4690076882000085
  @DF-RKS Final Energy:  -381.46924641016710
    Total Energy =                       -381.4692464101671021
   => B3LYP Composite Functional <=
  Basis Set: (6-31G* AUX)
    Blend: CC-PVDZ-JKFIT
  @DF-RKS Final Energy:  -381.46925176812169
    Total Energy =                       -381.4692517681216373
  Basis Set: 6-31G*
    Blend: 6-31G*
  Basis Set: (6-31G* AUX)
    Blend: CC-PVDZ-JKFIT
   => B3LYP Composite Functional <=
  Charge       = 1
  Multiplicity = 1
  Basis Set: 6-31G*
    Blend: 6-31G*
   => B3LYP Composite Functional <=
  Basis Set: (6-31G* AUX)
    Blend: CC-PVDZ-JKFIT

    Orbital Energies (a.u.)
    -----------------------

    Doubly Occupied:

       1A    -14.570076     2A    -14.565825     3A    -10.496866
       4A    -10.372581     5A    -10.356601     6A    -10.355466
       7A    -10.343824     8A    -10.340605     9A    -10.340130
      10A     -1.183524    11A     -1.091425    12A     -1.014247
      13A     -0.926936    14A     -0.902149    15A     -0.844465
      16A     -0.783955    17A     -0.773044    18A     -0.739537
      19A     -0.732010    20A     -0.691339    21A     -0.668854
      22A     -0.625411    23A     -0.613493    24A     -0.585807
      25A     -0.579112    26A     -0.571590    27A     -0.518046
      28A     -0.505570    29A     -0.497858    30A     -0.475166
      31A     -0.412197    32A     -0.405724

  @DF-RKS Final Energy:  -381.46925247444642

   => Energetics <=

    Nuclear Repulsion Energy =            416.8768960924091971
    One-Electron Energy =               -1328.9786871055557640
    Two-Electron Energy =                 575.0486839551156208
    DFT Exchange-Correlation Energy =     -44.4042173564154226
    Empirical Dispersion Energy =          -0.0119280600000000
    PCM Polarization Energy =               0.0000000000000000
    EFP Energy =                            0.0000000000000000
    Total Energy =                       -381.4692524744463640
    Molecular point group: c1
  Basis Set: 6-31G*
    Blend: 6-31G*
  Basis Set: (6-31G* AUX)
    Blend: CC-PVDZ-JKFIT
   => B3LYP Composite Functional <=

  -Total Gradient:
     Atom            X                  Y                   Z
    ------   -----------------  -----------------  -----------------
       1        0.002671318952    -0.001808286845    -0.000075214982
       2        0.000017160422     0.000017533231     0.000024422981
       3       -0.000015701615     0.000004548235    -0.000008633661
       4        0.000012136247     0.000016250896     0.000015974732
       5        0.000003822735    -0.000019639805    -0.000032913030
       6        0.000020627977     0.000015655402     0.000039341267
       7       -0.005159708180     0.003875552790    -0.000685303402
       8        0.000015614829    -0.000004659108    -0.000017811227
       9        0.000000407069     0.000000854462     0.000003462160
      10       -0.000003877106     0.000006147731     0.000001097449
      11       -0.000011635709    -0.000000032464    -0.000002898527
      12       -0.000001042083    -0.000015020401    -0.000013690898
      13        0.005187028179    -0.005270949778     0.002726062550
      14        0.000017692713     0.000030585014    -0.000009191116
      15       -0.000008655383    -0.000004635203    -0.000002097778
      16       -0.000007039762     0.000011353418     0.000016115065
      17       -0.002738041117     0.003145950290    -0.002002840270
      18       -0.000007056803    -0.000011502876     0.000009035419

  **** Optimization is complete! (in 6 steps) ****
    Final optimized geometry and variables:
    Molecular point group: c1

    Geometry (in Angstrom), charge = 1, multiplicity = 1:

    C           -0.005585776285     0.001664591389    -0.175246921289
    C            0.041724562246     1.222370327236     0.526094886802
    C            0.041488304025     1.218424322976     1.916678231255
    C           -0.001064123214     0.005703270647     2.612461638839
    C           -0.048315189848    -1.208173112185     1.919558595409
    C           -0.055844173688    -1.217059322901     0.528621472301
    C           -0.000970804113    -0.004481923034    -1.638716219566
    H            0.029312380374     2.167269875532    -0.010138172617
    H            0.062847364120     2.158329759408     2.458555088693
    H            0.001894753467     0.007045473923     3.698161392250
    H           -0.068895461737    -2.146751556193     2.463803184823
    H           -0.051763213019    -2.160676450927    -0.008525034795
    N           -0.641622575941    -0.972304285243    -2.301210335874
    N            0.705534737414     0.902419375528    -2.306637622332
    H            0.673498465793     0.988115993858    -3.315945320532
    H            1.367511619730     1.490417849087    -1.816445120440
    H           -1.459139131878    -1.396590715529    -1.879896724407
    H           -0.584128737444    -1.045437473573    -3.311171018519

  Mulliken Charges: (a.u.)
   Center  Symbol    Alpha    Beta     Spin     Total
       1     C     2.95811  2.95811  0.00000  0.08379
       2     C     3.08324  3.08324  0.00000 -0.16647
       3     C     3.06258  3.06258  0.00000 -0.12516
       4     C     3.05111  3.05111  0.00000 -0.10222
       5     C     3.06260  3.06260  0.00000 -0.12521
       6     C     3.07901  3.07901  0.00000 -0.15802
       7     C     2.72822  2.72822  0.00000  0.54356
       8     H     0.41455  0.41455  0.00000  0.17090
       9     H     0.40544  0.40544  0.00000  0.18913
      10     H     0.40367  0.40367  0.00000  0.19266
      11     H     0.40527  0.40527  0.00000  0.18946
      12     H     0.41146  0.41146  0.00000  0.17707
      13     N     3.86157  3.86157  0.00000 -0.72314
      14     N     3.85954  3.85954  0.00000 -0.71907
      15     H     0.30559  0.30559  0.00000  0.38883
      16     H     0.29952  0.29952  0.00000  0.40095
      17     H     0.30074  0.30074  0.00000  0.39853
      18     H     0.30778  0.30778  0.00000  0.38443

   Total alpha = 32.00000, Total beta = 32.00000, Total charge =  1.00000

*** Psi4 exiting successfully. Buy a developer a beer!
