                               Psi4 1.1 release

  ==> Input File <==

--------------------------------------------------------------------------
set {
	reference rks
	basis 6-31G*
}

set_num_threads( 8 )
memory 2 gb

molecule MOL {
1 1

C	 0.351094	 -0.231094	 -0.253150
C	 0.378701	 0.847959	 0.650147
C	 0.707886	 0.621799	 1.982892
C	 1.018393	 -0.670318	 2.417914
C	 0.996366	 -1.743558	 1.521869
C	 0.659547	 -1.531347	 0.188737
C	 -0.000000	 -0.000000	 -1.658508
H	 0.096708	 1.845863	 0.326255
H	 0.712568	 1.449953	 2.684086
H	 1.278243	 -0.841354	 3.458039
H	 1.251352	 -2.742626	 1.860066
H	 0.685428	 -2.360674	 -0.512536
N	 -0.712589	 -0.905950	 -2.322235
N	 0.394865	 1.115081	 -2.266571
H	 0.101634	 1.364085	 -3.204003
H	 1.067972	 1.722547	 -1.818024
H	 -1.377189	 -1.485970	 -1.827091
H	 -0.673431	 -1.006470	 -3.329771

	symmetry c1
}
set optking { dynamic_level = 1 }
set optking {
	frozen_dihedral = ("
		1 7 13 17
	")
}

ee,wfn = optimize('b3lyp-d3', return_wfn=True)
oeprop( wfn, 'DIPOLE', 'QUADRUPOLE', 'MULLIKEN_CHARGES')
f=open( 'psi4out.xyz', 'w' )
f.write( "18  " )
f.write( str(ee) + "\n" )
f.write( MOL.save_string_xyz() )
f.close()
--------------------------------------------------------------------------

    Molecular point group: c1
  Charge       = 1
  Multiplicity = 1
  Basis Set: 6-31G*
    Blend: 6-31G*
   => B3LYP Composite Functional <=
  Basis Set: (6-31G* AUX)
    Blend: CC-PVDZ-JKFIT
  @DF-RKS Final Energy:  -381.46662031529974
    Total Energy =                       -381.4666203152997355
    Molecular point group: c1
  Basis Set: 6-31G*
    Blend: 6-31G*
  Basis Set: (6-31G* AUX)
    Blend: CC-PVDZ-JKFIT
   => B3LYP Composite Functional <=
  Basis Set: 6-31G*
    Blend: 6-31G*
   => B3LYP Composite Functional <=
  Basis Set: (6-31G* AUX)
    Blend: CC-PVDZ-JKFIT
  @DF-RKS Final Energy:  -381.46849263666132
    Total Energy =                       -381.4684926366612672
  Basis Set: 6-31G*
    Blend: 6-31G*
  Basis Set: (6-31G* AUX)
  @DF-RKS Final Energy:  -381.46900768533914
    Total Energy =                       -381.4690076853391929
  @DF-RKS Final Energy:  -381.46924641218351
    Total Energy =                       -381.4692464121835656
   => B3LYP Composite Functional <=
  Basis Set: (6-31G* AUX)
    Blend: CC-PVDZ-JKFIT
  @DF-RKS Final Energy:  -381.46925177068056
    Total Energy =                       -381.4692517706805575
  Basis Set: 6-31G*
    Blend: 6-31G*
  Basis Set: (6-31G* AUX)
    Blend: CC-PVDZ-JKFIT
   => B3LYP Composite Functional <=
  Charge       = 1
  Multiplicity = 1
  Basis Set: 6-31G*
    Blend: 6-31G*
   => B3LYP Composite Functional <=
  Basis Set: (6-31G* AUX)
    Blend: CC-PVDZ-JKFIT

    Orbital Energies (a.u.)
    -----------------------

    Doubly Occupied:

       1A    -14.570076     2A    -14.565825     3A    -10.496866
       4A    -10.372581     5A    -10.356601     6A    -10.355466
       7A    -10.343824     8A    -10.340605     9A    -10.340130
      10A     -1.183524    11A     -1.091425    12A     -1.014247
      13A     -0.926936    14A     -0.902149    15A     -0.844465
      16A     -0.783955    17A     -0.773044    18A     -0.739537
      19A     -0.732010    20A     -0.691339    21A     -0.668854
      22A     -0.625411    23A     -0.613493    24A     -0.585807
      25A     -0.579112    26A     -0.571590    27A     -0.518046
      28A     -0.505570    29A     -0.497858    30A     -0.475166
      31A     -0.412197    32A     -0.405724

  @DF-RKS Final Energy:  -381.46925247736755

   => Energetics <=

    Nuclear Repulsion Energy =            416.8768976603724923
    One-Electron Energy =               -1328.9786862765020032
    Two-Electron Energy =                 575.0486816848904255
    DFT Exchange-Correlation Energy =     -44.4042174861284238
    Empirical Dispersion Energy =          -0.0119280600000000
    PCM Polarization Energy =               0.0000000000000000
    EFP Energy =                            0.0000000000000000
    Total Energy =                       -381.4692524773674904
    Molecular point group: c1
  Basis Set: 6-31G*
    Blend: 6-31G*
  Basis Set: (6-31G* AUX)
    Blend: CC-PVDZ-JKFIT
   => B3LYP Composite Functional <=

  -Total Gradient:
     Atom            X                  Y                   Z
    ------   -----------------  -----------------  -----------------
       1        0.002807435606    -0.001248676610    -0.000985235615
       2        0.000019800856     0.000016276289     0.000023177901
       3       -0.000017820870     0.000002886044    -0.000004144503
       4        0.000013151259     0.000015489661     0.000015946130
       5       -0.000001396465    -0.000013195256    -0.000036218863
       6        0.000026971876     0.000012816394     0.000036416620
       7       -0.005676551644     0.002914115794     0.001182045599
       8        0.000011401788     0.000001169315    -0.000021241693
       9        0.000001097942     0.000000391349     0.000003439267
      10       -0.000004336846     0.000005068813     0.000003104321
      11       -0.000011858923    -0.000001719317    -0.000000338780
      12       -0.000002106254    -0.000012576277    -0.000015788121
      13        0.006392256492    -0.004584103088     0.000494667248
      14        0.000010386540     0.000034320247    -0.000006459386
      15       -0.000008134697    -0.000005762031    -0.000001103929
      16       -0.000004567343     0.000007156908     0.000019090989
      17       -0.003561563475     0.002861344631    -0.000730242984
      18       -0.000002965149    -0.000013897484     0.000007878075

  **** Optimization is complete! (in 6 steps) ****
    Final optimized geometry and variables:
    Molecular point group: c1

    Geometry (in Angstrom), charge = 1, multiplicity = 1:

    C           -0.056505155971     0.035582177681    -0.180314452689
    C           -0.019044994232     1.118001081456     0.720355900751
    C            0.314131415193     0.895053801391     2.051905987921
    C            0.614490408883    -0.398846603441     2.490339367815
    C            0.578123255324    -1.475959008051     1.599076526614
    C            0.239254399395    -1.266839047351     0.266305607086
    C           -0.401469187972     0.261031590860    -1.584584460148
    H           -0.295414789802     2.116803362900     0.393937671254
    H            0.328952468733     1.725404188618     2.750338242273
    H            0.876999404099    -0.568041597589     3.530155014374
    H            0.823821063054    -2.475988302797     1.941317758292
    H            0.250527379529    -2.096834115968    -0.433649527797
    N           -1.035777742273    -0.691839265613    -2.274296775642
    N           -0.013587484332     1.376571388572    -2.195205200077
    H           -0.298269192041     1.612791653322    -3.138724454920
    H            0.654667240130     1.992072905230    -1.749292959922
    H           -1.658792507573    -1.320873184628    -1.782335039830
    H           -1.211772185640    -0.593047075764    -3.268248816046

  Mulliken Charges: (a.u.)
   Center  Symbol    Alpha    Beta     Spin     Total
       1     C     2.95811  2.95811  0.00000  0.08379
       2     C     3.08324  3.08324  0.00000 -0.16647
       3     C     3.06258  3.06258  0.00000 -0.12516
       4     C     3.05111  3.05111  0.00000 -0.10222
       5     C     3.06260  3.06260  0.00000 -0.12521
       6     C     3.07901  3.07901  0.00000 -0.15802
       7     C     2.72822  2.72822  0.00000  0.54356
       8     H     0.41455  0.41455  0.00000  0.17090
       9     H     0.40544  0.40544  0.00000  0.18913
      10     H     0.40367  0.40367  0.00000  0.19266
      11     H     0.40527  0.40527  0.00000  0.18946
      12     H     0.41146  0.41146  0.00000  0.17707
      13     N     3.86157  3.86157  0.00000 -0.72314
      14     N     3.85954  3.85954  0.00000 -0.71907
      15     H     0.30559  0.30559  0.00000  0.38883
      16     H     0.29952  0.29952  0.00000  0.40095
      17     H     0.30074  0.30074  0.00000  0.39853
      18     H     0.30778  0.30778  0.00000  0.38443

   Total alpha = 32.00000, Total beta = 32.00000, Total charge =  1.00000

*** Psi4 exiting successfully. Buy a developer a beer!
