                               Psi4 1.1 release

  ==> Input File <==

--------------------------------------------------------------------------
set {
	reference rks
	basis 6-31G*
}

set_num_threads( 8 )
memory 2 gb

molecule MOL {
1 1

C	 -0.000000	 -0.000000	 -0.191639
C	 1.036664	 0.643075	 0.510391
C	 1.028737	 0.643716	 1.901670
C	 -0.000000	 0.000000	 2.596333
C	 -1.028737	 -0.643716	 1.901670
C	 -1.036665	 -0.643075	 0.510391
C	 -0.000000	 -0.000000	 -1.658508
H	 1.814415	 1.180753	 -0.024627
H	 1.817957	 1.154030	 2.444112
H	 -0.000000	 0.000000	 3.681982
H	 -1.817957	 -1.154031	 2.444112
H	 -1.814415	 -1.180753	 -0.024627
N	 -0.712589	 -0.905950	 -2.322235
N	 0.712590	 0.905950	 -2.322235
H	 0.673432	 1.006470	 -3.329771
H	 1.377190	 1.485970	 -1.827091
H	 -1.377189	 -1.485970	 -1.827091
H	 -0.673431	 -1.006470	 -3.329771

	symmetry c1
}
set optking { dynamic_level = 1 }
set optking {
	frozen_dihedral = ("
		2 1 7 13
	")
}

ee,wfn = optimize('b3lyp-d3', return_wfn=True)
oeprop( wfn, 'DIPOLE', 'QUADRUPOLE', 'MULLIKEN_CHARGES')
f=open( 'psi4out.xyz', 'w' )
f.write( "18  " )
f.write( str(ee) + "\n" )
f.write( MOL.save_string_xyz() )
f.close()
--------------------------------------------------------------------------

    Molecular point group: c1
  Charge       = 1
  Multiplicity = 1
  Basis Set: 6-31G*
    Blend: 6-31G*
   => B3LYP Composite Functional <=
  Basis Set: (6-31G* AUX)
    Blend: CC-PVDZ-JKFIT
  @DF-RKS Final Energy:  -381.46358806813612
    Total Energy =                       -381.4635880681361755
    Molecular point group: c1
  Basis Set: 6-31G*
    Blend: 6-31G*
  Basis Set: (6-31G* AUX)
    Blend: CC-PVDZ-JKFIT
   => B3LYP Composite Functional <=
  Basis Set: 6-31G*
    Blend: 6-31G*
   => B3LYP Composite Functional <=
  Basis Set: (6-31G* AUX)
    Blend: CC-PVDZ-JKFIT
  @DF-RKS Final Energy:  -381.46666310896649
    Total Energy =                       -381.4666631089664861
  Basis Set: 6-31G*
    Blend: 6-31G*
  Basis Set: (6-31G* AUX)
  @DF-RKS Final Energy:  -381.46837801582427
    Total Energy =                       -381.4683780158242712
  @DF-RKS Final Energy:  -381.46666310733929
    Total Energy =                       -381.4666631073392864
  @DF-RKS Final Energy:  -381.46808064041102
    Total Energy =                       -381.4680806404110740
  @DF-RKS Final Energy:  -381.46884320205749
    Total Energy =                       -381.4688432020574851
  @DF-RKS Final Energy:  -381.46920629792186
    Total Energy =                       -381.4692062979218008
  @DF-RKS Final Energy:  -381.46926423106498
    Total Energy =                       -381.4692642310649831
  @DF-RKS Final Energy:  -381.46927236049322
    Total Energy =                       -381.4692723604932780
   => B3LYP Composite Functional <=
  Basis Set: (6-31G* AUX)
    Blend: CC-PVDZ-JKFIT
  @DF-RKS Final Energy:  -381.46927575906994
    Total Energy =                       -381.4692757590699443
  Basis Set: 6-31G*
    Blend: 6-31G*
  Basis Set: (6-31G* AUX)
    Blend: CC-PVDZ-JKFIT
   => B3LYP Composite Functional <=
  Charge       = 1
  Multiplicity = 1
  Basis Set: 6-31G*
    Blend: 6-31G*
   => B3LYP Composite Functional <=
  Basis Set: (6-31G* AUX)
    Blend: CC-PVDZ-JKFIT

    Orbital Energies (a.u.)
    -----------------------

    Doubly Occupied:

       1A    -14.566398     2A    -14.566151     3A    -10.497133
       4A    -10.375242     5A    -10.358566     6A    -10.358349
       7A    -10.345280     8A    -10.341989     9A    -10.341867
      10A     -1.183015    11A     -1.090116    12A     -1.015774
      13A     -0.927874    14A     -0.904127    15A     -0.846437
      16A     -0.785672    17A     -0.775214    18A     -0.737884
      19A     -0.735545    20A     -0.688693    21A     -0.669284
      22A     -0.628769    23A     -0.613719    24A     -0.592686
      25A     -0.580776    26A     -0.574786    27A     -0.518406
      28A     -0.507885    29A     -0.499695    30A     -0.471893
      31A     -0.413006    32A     -0.407226

  @DF-RKS Final Energy:  -381.46927592863091

   => Energetics <=

    Nuclear Repulsion Energy =            416.8666813933635353
    One-Electron Energy =               -1328.8850299779417128
    Two-Electron Energy =                 574.9673707792228470
    DFT Exchange-Correlation Energy =     -44.4065708332755236
    Empirical Dispersion Energy =          -0.0117272900000000
    PCM Polarization Energy =               0.0000000000000000
    EFP Energy =                            0.0000000000000000
    Total Energy =                       -381.4692759286309069
    Molecular point group: c1
  Basis Set: 6-31G*
    Blend: 6-31G*
  Basis Set: (6-31G* AUX)
    Blend: CC-PVDZ-JKFIT
   => B3LYP Composite Functional <=

  -Total Gradient:
     Atom            X                  Y                   Z
    ------   -----------------  -----------------  -----------------
       1        0.001442273270    -0.003500698799    -0.000088716641
       2       -0.001899424997     0.003098511394     0.000067696738
       3        0.000000645796     0.000002136727    -0.000004598318
       4        0.000002103716    -0.000006471429    -0.000005646452
       5       -0.000002515702    -0.000004250294    -0.000001787297
       6       -0.000004811997     0.000007382837    -0.000000054045
       7        0.003491994118    -0.001992933254    -0.000040053782
       8       -0.000005626722     0.000005725305    -0.000001833377
       9        0.000000355694    -0.000002627292    -0.000000079107
      10       -0.000001774786     0.000002386618    -0.000000249614
      11        0.000000436735     0.000001295467    -0.000000669009
      12        0.000000181604     0.000004136167     0.000004349467
      13       -0.003014033589     0.002345387384     0.000071866130
      14       -0.000008763458     0.000048731794     0.000010818263
      15        0.000006670881    -0.000015409503     0.000000606333
      16       -0.000000151995    -0.000016683236    -0.000010431285
      17       -0.000000850016     0.000014877002    -0.000017719901
      18       -0.000002049533     0.000020655917     0.000002874825

  **** Optimization is complete! (in 8 steps) ****
    Final optimized geometry and variables:
    Molecular point group: c1

    Geometry (in Angstrom), charge = 1, multiplicity = 1:

    C            0.026790219974    -0.038663567374    -0.192530950613
    C            1.070899480242     0.586329113490     0.517721470209
    C            1.051820367298     0.608279447048     1.907650050503
    C           -0.009529144620     0.020492562359     2.602692323761
    C           -1.057169817305    -0.588245386655     1.905611777199
    C           -1.046948337151    -0.614163102379     0.515285395925
    C            0.011258820715    -0.014238280947    -1.658758883803
    H            1.930581420784     0.997623528738    -0.003696658864
    H            1.868273131953     1.074500460231     2.449334462467
    H           -0.022035174727     0.040675287933     3.688066684982
    H           -1.890152111201    -1.027075245025     2.445034618425
    H           -1.899516380916    -1.034738198522    -0.009547920332
    N           -0.710077282839    -0.902827985906    -2.340845921650
    N            0.675616062072     0.928732684205    -2.324086843244
    H            0.743987428049     0.936108456194    -3.334614082715
    H            1.058873704256     1.726714490776    -1.836274251381
    H           -1.058461687792    -1.735342367953    -1.885122870065
    H           -0.813802747762    -0.859631136090    -3.347481974642

  Mulliken Charges: (a.u.)
   Center  Symbol    Alpha    Beta     Spin     Total
       1     C     2.94354  2.94354  0.00000  0.11292
       2     C     3.08707  3.08707  0.00000 -0.17414
       3     C     3.06226  3.06226  0.00000 -0.12452
       4     C     3.05124  3.05124  0.00000 -0.10248
       5     C     3.06154  3.06154  0.00000 -0.12308
       6     C     3.08380  3.08380  0.00000 -0.16760
       7     C     2.71257  2.71257  0.00000  0.57486
       8     H     0.41591  0.41591  0.00000  0.16817
       9     H     0.40512  0.40512  0.00000  0.18976
      10     H     0.40316  0.40316  0.00000  0.19368
      11     H     0.40509  0.40509  0.00000  0.18982
      12     H     0.41644  0.41644  0.00000  0.16712
      13     N     3.86979  3.86979  0.00000 -0.73959
      14     N     3.86912  3.86912  0.00000 -0.73823
      15     H     0.30587  0.30587  0.00000  0.38826
      16     H     0.30065  0.30065  0.00000  0.39870
      17     H     0.30091  0.30091  0.00000  0.39819
      18     H     0.30591  0.30591  0.00000  0.38818

   Total alpha = 32.00000, Total beta = 32.00000, Total charge =  1.00000

*** Psi4 exiting successfully. Buy a developer a beer!
