                               Psi4 1.1 release

  ==> Input File <==

--------------------------------------------------------------------------
set_num_threads( 8 )
memory 2.000000 gb

set { reference rks }
set { basis cc-pVDZ }

molecule MOL {
    0 1
    noreorient
    nocom
    symmetry c1
    O    1.050400   0.042900  -0.048100
    C    2.474100   0.047400  -0.029000
    C    3.002600  -1.068900  -0.932000
    N    4.462700  -1.072400  -1.006800
    H    0.760400   0.728400   0.578000
    H    2.809900  -0.097900   1.003200
    H    2.817400   1.026800  -0.378600
    H    2.581000  -0.963300  -1.938400
    H    2.653800  -2.036400  -0.553400
    H    4.756792  -1.581335  -1.839853
    H    4.830509  -1.598550  -0.214251
}

set optking { frozen_dihedral = (" 2 3 4 10 ") }

energy, wfn = energy('B3LYP-D3', return_wfn=True)

import os
os.chdir(os.environ['HTMD_PSI4_WORKDIR'])

oeprop(wfn, 'DIPOLE', 'QUADRUPOLE', 'MULLIKEN_CHARGES')

with open('psi4out.xyz', 'w') as f:
    f.write('11 ' )
    f.write('%.12f\n' % energy)
    f.write(MOL.save_string_xyz())
--------------------------------------------------------------------------

    Molecular point group: c1

    Geometry (in Angstrom), charge = 0, multiplicity = 1:

       Center              X                  Y                   Z               Mass
    ------------   -----------------  -----------------  -----------------  -----------------
           O          1.050400000000     0.042900000000    -0.048100000000    15.994914619560
           C          2.474100000000     0.047400000000    -0.029000000000    12.000000000000
           C          3.002600000000    -1.068900000000    -0.932000000000    12.000000000000
           N          4.462700000000    -1.072400000000    -1.006800000000    14.003074004780
           H          0.760400000000     0.728400000000     0.578000000000     1.007825032070
           H          2.809900000000    -0.097900000000     1.003200000000     1.007825032070
           H          2.817400000000     1.026800000000    -0.378600000000     1.007825032070
           H          2.581000000000    -0.963300000000    -1.938400000000     1.007825032070
           H          2.653800000000    -2.036400000000    -0.553400000000     1.007825032070
           H          4.756792000000    -1.581335000000    -1.839853000000     1.007825032070
           H          4.830509000000    -1.598550000000    -0.214251000000     1.007825032070

  Charge       = 0
  Multiplicity = 1
  Basis Set: CC-PVDZ
    Blend: CC-PVDZ
   => B3LYP Composite Functional <=
  Basis Set: (CC-PVDZ AUX)
    Blend: CC-PVDZ-JKFIT

    Orbital Energies (a.u.)
    -----------------------

    Doubly Occupied:

       1A    -19.124672     2A    -14.305695     3A    -10.219877
       4A    -10.201794     5A     -1.007068     6A     -0.876977
       7A     -0.711079     8A     -0.594118     9A     -0.504495
      10A     -0.490255    11A     -0.448838    12A     -0.415857
      13A     -0.392280    14A     -0.355453    15A     -0.322931
      16A     -0.258143    17A     -0.233127

  @DF-RKS Final Energy:  -210.39096232508112

   => Energetics <=

    Nuclear Repulsion Energy =            130.3155939702225794
    One-Electron Energy =                -543.6059353127377562
    Two-Electron Energy =                 226.3907832256894039
    DFT Exchange-Correlation Energy =     -23.4865918482553724
    Empirical Dispersion Energy =          -0.0048123600000000
    PCM Polarization Energy =               0.0000000000000000
    EFP Energy =                            0.0000000000000000
    Total Energy =                       -210.3909623250811194

  Mulliken Charges: (a.u.)
   Center  Symbol    Alpha    Beta     Spin     Total
       1     O     4.14037  4.14037  0.00000 -0.28074
       2     C     2.92450  2.92450  0.00000  0.15100
       3     C     2.99145  2.99145  0.00000  0.01709
       4     N     3.59072  3.59072  0.00000 -0.18143
       5     H     0.43000  0.43000  0.00000  0.14000
       6     H     0.50505  0.50505  0.00000 -0.01009
       7     H     0.49965  0.49965  0.00000  0.00070
       8     H     0.49021  0.49021  0.00000  0.01957
       9     H     0.50019  0.50019  0.00000 -0.00038
      10     H     0.46307  0.46307  0.00000  0.07385
      11     H     0.46479  0.46479  0.00000  0.07042

   Total alpha = 17.00000, Total beta = 17.00000, Total charge = -0.00000

*** Psi4 exiting successfully. Buy a developer a beer!
