                               Psi4 1.1 release

  ==> Input File <==

--------------------------------------------------------------------------
set_num_threads(1)
set_memory(3145728000)

set { reference rks }
set { basis 6-31G* }

molecule MOL {
    1 1
    noreorient
    nocom
    symmetry c1
    C    0.000000   0.000000  -0.177864
    C    0.036678   1.219374   0.524165
    C    0.031764   1.213119   1.915444
    C   -0.000000  -0.000000   2.610107
    C   -0.031764  -1.213119   1.915444
    C   -0.036677  -1.219374   0.524165
    C    0.000000  -0.000000  -1.644734
    H    0.018170   2.164705  -0.010853
    H    0.042402   2.152895   2.457886
    H   -0.000000  -0.000000   3.695756
    H   -0.042402  -2.152895   2.457886
    H   -0.018170  -2.164705  -0.010853
    N   -0.712590  -0.905950  -2.308460
    N    0.712590   0.905950  -2.308461
    H    0.673432   1.006469  -3.315997
    H    1.377190   1.485970  -1.813317
    H   -1.537876  -0.622095  -2.819941
    H   -0.433153  -1.876868  -2.385920
}

set optking { frozen_dihedral = (" 1 7 13 17 ") }

set optking { dynamic_level = 1
 geom_maxiter = 250
 print_trajectory_xyz_file = True }

energy, wfn = optimize('B3LYP-D3', return_wfn=True)

import os
os.chdir(os.environ['HTMD_PSI4_WORKDIR'])

oeprop(wfn, 'DIPOLE', 'QUADRUPOLE', 'MULLIKEN_CHARGES')

with open('psi4out.xyz', 'w') as f:
    f.write('18 ' )
    f.write('%.12f\n' % energy)
    f.write(MOL.save_string_xyz())
--------------------------------------------------------------------------

    Molecular point group: c1
  Charge       = 1
  Multiplicity = 1
  Basis Set: 6-31G*
    Blend: 6-31G*
   => B3LYP Composite Functional <=
  Basis Set: (6-31G* AUX)
    Blend: CC-PVDZ-JKFIT
  @DF-RKS Final Energy:  -381.42694191826587
    Total Energy =                       -381.4269419182659249
    Molecular point group: c1
  Basis Set: 6-31G*
    Blend: 6-31G*
  Basis Set: (6-31G* AUX)
    Blend: CC-PVDZ-JKFIT
   => B3LYP Composite Functional <=
  Basis Set: 6-31G*
    Blend: 6-31G*
   => B3LYP Composite Functional <=
  Basis Set: (6-31G* AUX)
    Blend: CC-PVDZ-JKFIT
  @DF-RKS Final Energy:  -381.43501448982823
    Total Energy =                       -381.4350144898281769
  Basis Set: 6-31G*
    Blend: 6-31G*
  Basis Set: (6-31G* AUX)
  @DF-RKS Final Energy:  -381.44148650924768
    Total Energy =                       -381.4414865092476816
  @DF-RKS Final Energy:  -381.43501448982778
    Total Energy =                       -381.4350144898277790
  @DF-RKS Final Energy:  -381.43861046953066
    Total Energy =                       -381.4386104695306017
  @DF-RKS Final Energy:  -381.44137396132959
    Total Energy =                       -381.4413739613296457
  @DF-RKS Final Energy:  -381.44405274567890
    Total Energy =                       -381.4440527456789596
  @DF-RKS Final Energy:  -381.44651462829722
    Total Energy =                       -381.4465146282972796
  @DF-RKS Final Energy:  -381.44854645750871
    Total Energy =                       -381.4485464575087121
  @DF-RKS Final Energy:  -381.44998977579291
    Total Energy =                       -381.4499897757929148
  @DF-RKS Final Energy:  -381.45066636383723
    Total Energy =                       -381.4506663638372288
  @DF-RKS Final Energy:  -381.45075984992792
    Total Energy =                       -381.4507598499279197
  @DF-RKS Final Energy:  -381.45077497570759
    Total Energy =                       -381.4507749757076454
  @DF-RKS Final Energy:  -381.45063186253390
    Total Energy =                       -381.4506318625338963
  @DF-RKS Final Energy:  -381.45073980622385
    Total Energy =                       -381.4507398062238508
  @DF-RKS Final Energy:  -381.45077497570674
    Total Energy =                       -381.4507749757067359
   => B3LYP Composite Functional <=
  Basis Set: (6-31G* AUX)
    Blend: CC-PVDZ-JKFIT
  @DF-RKS Final Energy:  -381.45077664181326
    Total Energy =                       -381.4507766418132064
  Basis Set: 6-31G*
    Blend: 6-31G*
  Basis Set: (6-31G* AUX)
    Blend: CC-PVDZ-JKFIT
   => B3LYP Composite Functional <=
  Charge       = 1
  Multiplicity = 1
  Basis Set: 6-31G*
    Blend: 6-31G*
   => B3LYP Composite Functional <=
  Basis Set: (6-31G* AUX)
    Blend: CC-PVDZ-JKFIT

    Orbital Energies (a.u.)
    -----------------------

    Doubly Occupied:

       1A    -14.575614     2A    -14.544693     3A    -10.500818
       4A    -10.383391     5A    -10.367678     6A    -10.367284
       7A    -10.353434     8A    -10.348976     9A    -10.348371
      10A     -1.181691    11A     -1.084330    12A     -1.022586
      13A     -0.932484    14A     -0.911832    15A     -0.846120
      16A     -0.786943    17A     -0.776588    18A     -0.741007
      19A     -0.723050    20A     -0.676656    21A     -0.674107
      22A     -0.639780    23A     -0.609993    24A     -0.597924
      25A     -0.584339    26A     -0.580177    27A     -0.521246
      28A     -0.516946    29A     -0.506803    30A     -0.469160
      31A     -0.418766    32A     -0.414109

  @DF-RKS Final Energy:  -381.45077701816558

   => Energetics <=

    Nuclear Repulsion Energy =            415.9809713663368029
    One-Electron Energy =               -1326.9076974154427262
    Two-Electron Energy =                 573.8852115189843062
    DFT Exchange-Correlation Energy =     -44.3976236380439531
    Empirical Dispersion Energy =          -0.0116388500000000
    PCM Polarization Energy =               0.0000000000000000
    EFP Energy =                            0.0000000000000000
    Total Energy =                       -381.4507770181655815
    Molecular point group: c1
  Basis Set: 6-31G*
    Blend: 6-31G*
  Basis Set: (6-31G* AUX)
    Blend: CC-PVDZ-JKFIT
   => B3LYP Composite Functional <=

  -Total Gradient:
     Atom            X                  Y                   Z
    ------   -----------------  -----------------  -----------------
       1       -0.008379127034     0.004267125799    -0.000192505880
       2       -0.000018145283    -0.000062987697     0.000058005279
       3       -0.000027935189     0.000012509382    -0.000026598765
       4        0.000001071514    -0.000007127986    -0.000018078243
       5       -0.000002835742    -0.000004352884    -0.000003675714
       6        0.000019335435    -0.000048886826    -0.000049053466
       7        0.011040336740    -0.007649230223     0.003277638931
       8       -0.000069236364     0.000003784380    -0.000022420251
       9        0.000000008781    -0.000005482733     0.000002540466
      10        0.000001828408    -0.000005926753    -0.000009349893
      11       -0.000001147859     0.000001681063    -0.000004230316
      12        0.000100822824     0.000004065798    -0.000029006021
      13        0.003596516271     0.007453465541    -0.012824493902
      14        0.000158770152     0.000071017375     0.000065344447
      15       -0.000067253992     0.000054812468    -0.000004740811
      16        0.000129215123    -0.000080903956    -0.000002105183
      17       -0.006470775433    -0.003990850008     0.009693035616
      18       -0.000012502110    -0.000013287469     0.000083131993

  **** Optimization is complete! (in 3 steps) ****
    Final optimized geometry and variables:
    Molecular point group: c1

    Geometry (in Angstrom), charge = 1, multiplicity = 1:

    C            0.070375811796    -0.009955764043    -0.199653417899
    C            0.215074113958     1.190161217016     0.531043647023
    C            0.157023337579     1.178278433317     1.918215141006
    C           -0.015654035690    -0.029065914625     2.603199689369
    C           -0.143659346238    -1.226712731401     1.894226165392
    C           -0.109755364425    -1.219264933736     0.505394095636
    C            0.101755884304    -0.004992258049    -1.662333063927
    H            0.320983197710     2.148812884424     0.032326337513
    H            0.243809878001     2.110300962216     2.466886215393
    H           -0.052915911943    -0.035125672458     3.688135948639
    H           -0.270495990254    -2.165169416410     2.423665459139
    H           -0.192522136412    -2.170011598758    -0.012558159881
    N           -0.377009687160    -1.033505232436    -2.431822273632
    N            0.496293353835     1.060173047006    -2.340862633388
    H            0.538786433693     1.030544157917    -3.353784102877
    H            0.855873147752     1.889586181257    -1.888147769625
    H           -1.227474163753    -0.827410112085    -2.951424495489
    H           -0.531290184811    -1.893216832451    -1.915729305994

  Mulliken Charges: (a.u.)
   Center  Symbol    Alpha    Beta     Spin     Total
       1     C     2.92175  2.92175  0.00000  0.15650
       2     C     3.08456  3.08456  0.00000 -0.16911
       3     C     3.06095  3.06095  0.00000 -0.12190
       4     C     3.05008  3.05008  0.00000 -0.10016
       5     C     3.06187  3.06187  0.00000 -0.12373
       6     C     3.08860  3.08860  0.00000 -0.17721
       7     C     2.75940  2.75940  0.00000  0.48120
       8     H     0.42000  0.42000  0.00000  0.16000
       9     H     0.40339  0.40339  0.00000  0.19322
      10     H     0.40096  0.40096  0.00000  0.19809
      11     H     0.40313  0.40313  0.00000  0.19374
      12     H     0.41521  0.41521  0.00000  0.16958
      13     N     3.86783  3.86783  0.00000 -0.73567
      14     N     3.85077  3.85077  0.00000 -0.70154
      15     H     0.29796  0.29796  0.00000  0.40408
      16     H     0.29910  0.29910  0.00000  0.40181
      17     H     0.30414  0.30414  0.00000  0.39172
      18     H     0.31031  0.31031  0.00000  0.37938

   Total alpha = 32.00000, Total beta = 32.00000, Total charge =  1.00000

*** Psi4 exiting successfully. Buy a developer a beer!
