                               Psi4 1.1 release

  ==> Input File <==

--------------------------------------------------------------------------
set_num_threads(1)
set_memory(4203741184)

set { reference rks }
set { basis cc-pVDZ }

molecule MOL {
    0 1
    noreorient
    nocom
    symmetry c1
    O    1.141000   0.017000   0.083000
    C    2.558000   0.086000  -0.005000
    C    3.192000  -0.789000   1.067000
    O    4.610000  -0.719000   0.979000
    H    0.789000   0.590000  -0.620000
    H    2.874000   1.128000   0.115000
    H    2.871000  -0.243000  -1.001000
    H    2.876000  -1.830000   0.947000
    H    2.879000  -0.459000   2.064000
    H    4.861224  -1.183252   0.161539
}

set optking { frozen_dihedral = (" 2 3 4 10 ") }

energy, wfn = energy('B3LYP-D3', return_wfn=True)

import os
os.chdir(os.environ['HTMD_PSI4_WORKDIR'])

oeprop(wfn, 'DIPOLE', 'QUADRUPOLE', 'MULLIKEN_CHARGES')

with open('psi4out.xyz', 'w') as f:
    f.write('10 ' )
    f.write('%.12f\n' % energy)
    f.write(MOL.save_string_xyz())
--------------------------------------------------------------------------

    Molecular point group: c1

    Geometry (in Angstrom), charge = 0, multiplicity = 1:

       Center              X                  Y                   Z               Mass
    ------------   -----------------  -----------------  -----------------  -----------------
           O          1.141000000000     0.017000000000     0.083000000000    15.994914619560
           C          2.558000000000     0.086000000000    -0.005000000000    12.000000000000
           C          3.192000000000    -0.789000000000     1.067000000000    12.000000000000
           O          4.610000000000    -0.719000000000     0.979000000000    15.994914619560
           H          0.789000000000     0.590000000000    -0.620000000000     1.007825032070
           H          2.874000000000     1.128000000000     0.115000000000     1.007825032070
           H          2.871000000000    -0.243000000000    -1.001000000000     1.007825032070
           H          2.876000000000    -1.830000000000     0.947000000000     1.007825032070
           H          2.879000000000    -0.459000000000     2.064000000000     1.007825032070
           H          4.861224000000    -1.183252000000     0.161539000000     1.007825032070

  Charge       = 0
  Multiplicity = 1
  Basis Set: CC-PVDZ
    Blend: CC-PVDZ
   => B3LYP Composite Functional <=
  Basis Set: (CC-PVDZ AUX)
    Blend: CC-PVDZ-JKFIT

    Orbital Energies (a.u.)
    -----------------------

    Doubly Occupied:

       1A    -19.135234     2A    -19.133259     3A    -10.227473
       4A    -10.227268     5A     -1.021870     6A     -1.010638
       7A     -0.731368     8A     -0.615696     9A     -0.520170
      10A     -0.495737    11A     -0.453335    12A     -0.429954
      13A     -0.397867    14A     -0.342613    15A     -0.325198
      16A     -0.269797    17A     -0.266735

  @DF-RKS Final Energy:  -230.25880270515458

   => Energetics <=

    Nuclear Repulsion Energy =            129.8364279865556057
    One-Electron Energy =                -571.3493897576604468
    Two-Electron Energy =                 235.7968896029890118
    DFT Exchange-Correlation Energy =     -24.5380878870387313
    Empirical Dispersion Energy =          -0.0046426500000000
    PCM Polarization Energy =               0.0000000000000000
    EFP Energy =                            0.0000000000000000
    Total Energy =                       -230.2588027051545794

  Mulliken Charges: (a.u.)
   Center  Symbol    Alpha    Beta     Spin     Total
       1     O     4.13992  4.13992  0.00000 -0.27983
       2     C     2.94378  2.94378  0.00000  0.11243
       3     C     2.92937  2.92937  0.00000  0.14127
       4     O     4.13925  4.13925  0.00000 -0.27849
       5     H     0.42818  0.42818  0.00000  0.14364
       6     H     0.49798  0.49798  0.00000  0.00403
       7     H     0.50816  0.50816  0.00000 -0.01632
       8     H     0.49702  0.49702  0.00000  0.00596
       9     H     0.48570  0.48570  0.00000  0.02859
      10     H     0.43064  0.43064  0.00000  0.13872

   Total alpha = 17.00000, Total beta = 17.00000, Total charge = -0.00000

*** Psi4 exiting successfully. Buy a developer a beer!
