                               Psi4 1.1 release

  ==> Input File <==

--------------------------------------------------------------------------
set {
	reference rks
	basis 6-31G*
}

set_num_threads( 8 )
memory 2 gb

molecule MOL {
1 1

C	 1.464731	 -0.079139	 -1.656180
C	 2.184722	 0.268415	 -0.497783
C	 3.573629	 0.186859	 -0.500151
C	 4.248639	 -0.229553	 -1.651754
C	 3.536347	 -0.571010	 -2.805562
C	 2.146753	 -0.502445	 -2.812347
C	 -0.000000	 -0.000000	 -1.658508
H	 1.662755	 0.551197	 0.412064
H	 4.128993	 0.437786	 0.397702
H	 5.332705	 -0.288125	 -1.650030
H	 4.064286	 -0.880467	 -3.701693
H	 1.600243	 -0.727496	 -3.723893
N	 -0.712589	 -0.905950	 -2.322235
N	 -0.612930	 0.977569	 -0.996889
H	 -1.619631	 1.023361	 -0.890953
H	 -0.075743	 1.753074	 -0.631778
H	 -1.377189	 -1.485970	 -1.827091
H	 -0.673431	 -1.006470	 -3.329771

	symmetry c1
}
set optking { dynamic_level = 1 }
set optking {
	frozen_dihedral = ("
		1 7 13 17
	")
}

ee,wfn = optimize('b3lyp-d3', return_wfn=True)
oeprop( wfn, 'DIPOLE', 'QUADRUPOLE', 'MULLIKEN_CHARGES')
f=open( 'psi4out.xyz', 'w' )
f.write( "18  " )
f.write( str(ee) + "\n" )
f.write( MOL.save_string_xyz() )
f.close()
--------------------------------------------------------------------------

    Molecular point group: c1
  Charge       = 1
  Multiplicity = 1
  Basis Set: 6-31G*
    Blend: 6-31G*
   => B3LYP Composite Functional <=
  Basis Set: (6-31G* AUX)
    Blend: CC-PVDZ-JKFIT
  @DF-RKS Final Energy:  -381.43247529239437
    Total Energy =                       -381.4324752923943720
    Molecular point group: c1
  Basis Set: 6-31G*
    Blend: 6-31G*
  Basis Set: (6-31G* AUX)
    Blend: CC-PVDZ-JKFIT
   => B3LYP Composite Functional <=
  Basis Set: 6-31G*
    Blend: 6-31G*
   => B3LYP Composite Functional <=
  Basis Set: (6-31G* AUX)
    Blend: CC-PVDZ-JKFIT
  @DF-RKS Final Energy:  -381.44162302868102
    Total Energy =                       -381.4416230286810219
  Basis Set: 6-31G*
    Blend: 6-31G*
  Basis Set: (6-31G* AUX)
  @DF-RKS Final Energy:  -381.44761004540533
    Total Energy =                       -381.4476100454053835
  @DF-RKS Final Energy:  -381.44162302813004
    Total Energy =                       -381.4416230281300386
  @DF-RKS Final Energy:  -381.44519267974488
    Total Energy =                       -381.4451926797448778
  @DF-RKS Final Energy:  -381.44800535620720
    Total Energy =                       -381.4480053562072044
  @DF-RKS Final Energy:  -381.45048768764127
    Total Energy =                       -381.4504876876413277
  @DF-RKS Final Energy:  -381.45252869397353
    Total Energy =                       -381.4525286939734769
  @DF-RKS Final Energy:  -381.45398070758802
    Total Energy =                       -381.4539807075880162
  @DF-RKS Final Energy:  -381.45471919237298
    Total Energy =                       -381.4547191923729770
  @DF-RKS Final Energy:  -381.45486281480163
    Total Energy =                       -381.4548628148016860
  @DF-RKS Final Energy:  -381.45488417434109
    Total Energy =                       -381.4548841743410321
  @DF-RKS Final Energy:  -381.45488850077442
    Total Energy =                       -381.4548885007744161
  @DF-RKS Final Energy:  -381.45406470512199
    Total Energy =                       -381.4540647051219366
  @DF-RKS Final Energy:  -381.45467158342257
    Total Energy =                       -381.4546715834225097
   => B3LYP Composite Functional <=
  Basis Set: (6-31G* AUX)
    Blend: CC-PVDZ-JKFIT
  @DF-RKS Final Energy:  -381.45488850126219
    Total Energy =                       -381.4548885012622463
  Basis Set: 6-31G*
    Blend: 6-31G*
  Basis Set: (6-31G* AUX)
    Blend: CC-PVDZ-JKFIT
   => B3LYP Composite Functional <=
  Charge       = 1
  Multiplicity = 1
  Basis Set: 6-31G*
    Blend: 6-31G*
   => B3LYP Composite Functional <=
  Basis Set: (6-31G* AUX)
    Blend: CC-PVDZ-JKFIT

    Orbital Energies (a.u.)
    -----------------------

    Doubly Occupied:

       1A    -14.576627     2A    -14.552490     3A    -10.501993
       4A    -10.380809     5A    -10.363718     6A    -10.362749
       7A    -10.348757     8A    -10.346102     9A    -10.345754
      10A     -1.184565    11A     -1.089952    12A     -1.019955
      13A     -0.930647    14A     -0.908419    15A     -0.845716
      16A     -0.786519    17A     -0.776020    18A     -0.740003
      19A     -0.728067    20A     -0.675377    21A     -0.672976
      22A     -0.636573    23A     -0.611284    24A     -0.597931
      25A     -0.581771    26A     -0.578983    27A     -0.520312
      28A     -0.513633    29A     -0.503990    30A     -0.473076
      31A     -0.415160    32A     -0.411248

  @DF-RKS Final Energy:  -381.45488945697679

   => Energetics <=

    Nuclear Repulsion Energy =            416.3823178380051786
    One-Electron Energy =               -1327.7696387873859294
    Two-Electron Energy =                 574.3422959189480252
    DFT Exchange-Correlation Energy =     -44.3981034165440818
    Empirical Dispersion Energy =          -0.0117610100000000
    PCM Polarization Energy =               0.0000000000000000
    EFP Energy =                            0.0000000000000000
    Total Energy =                       -381.4548894569767867
    Molecular point group: c1
  Basis Set: 6-31G*
    Blend: 6-31G*
  Basis Set: (6-31G* AUX)
    Blend: CC-PVDZ-JKFIT
   => B3LYP Composite Functional <=

  -Total Gradient:
     Atom            X                  Y                   Z
    ------   -----------------  -----------------  -----------------
       1       -0.000642017514    -0.006299128450     0.007784906007
       2        0.000040103108     0.000002976830    -0.000018920169
       3       -0.000014920692     0.000022490472     0.000017462448
       4        0.000009703620    -0.000005288003    -0.000013172845
       5       -0.000005851303     0.000007688976    -0.000008797407
       6        0.000027647046    -0.000032532835     0.000003922914
       7        0.004121156134     0.006613273510    -0.011610070523
       8        0.000029212499     0.000007142594     0.000010602890
       9       -0.000002257748     0.000007290377    -0.000006640348
      10        0.000000925199    -0.000002718399     0.000002462492
      11       -0.000001171789    -0.000001259283    -0.000007132024
      12        0.000030759258    -0.000002293614     0.000005252953
      13       -0.012845201783     0.009589565718     0.002427961278
      14       -0.000010810757    -0.000057197261     0.000012198284
      15        0.000001065267     0.000004468968    -0.000052420705
      16       -0.000035374413    -0.000004079996    -0.000014023519
      17        0.009337190265    -0.009902369409     0.001445611876
      18       -0.000057842476     0.000054240559     0.000029047392

  **** Optimization is complete! (in 2 steps) ****
    Final optimized geometry and variables:
    Molecular point group: c1

    Geometry (in Angstrom), charge = 1, multiplicity = 1:

    C           -0.187394941877     0.038838563710    -0.018744358740
    C            0.538095774196     0.381033197248     1.140171305732
    C            1.922421615770     0.248507261425     1.154428968013
    C            2.597620123333    -0.196104959492     0.013886542842
    C            1.885657414796    -0.521871787716    -1.144703589733
    C            0.499923218865    -0.413924864677    -1.162932453437
    C           -1.649051808238     0.144613826151    -0.029932122397
    H            0.028972397026     0.685324408356     2.050078373428
    H            2.474027111501     0.485371249740     2.058362541673
    H            3.678940351293    -0.290923341433     0.028659571834
    H            2.410956451435    -0.854026652601    -2.034117476037
    H           -0.032760340567    -0.632400196713    -2.084889413762
    N           -2.430574482880    -0.695779313207    -0.761623432375
    N           -2.268402857388     0.999401554477     0.767779537257
    H           -3.279733587923     1.076921128892     0.770713281529
    H           -1.751896991984     1.683761181148     1.305069757765
    H           -3.105127295354    -1.257638785918    -0.247098362567
    H           -1.898960931982    -1.317830749978    -1.362860842880

  Mulliken Charges: (a.u.)
   Center  Symbol    Alpha    Beta     Spin     Total
       1     C     2.93788  2.93788  0.00000  0.12424
       2     C     3.08426  3.08426  0.00000 -0.16852
       3     C     3.06179  3.06179  0.00000 -0.12358
       4     C     3.05097  3.05097  0.00000 -0.10194
       5     C     3.06214  3.06214  0.00000 -0.12428
       6     C     3.08819  3.08819  0.00000 -0.17637
       7     C     2.75442  2.75442  0.00000  0.49115
       8     H     0.41664  0.41664  0.00000  0.16672
       9     H     0.40418  0.40418  0.00000  0.19165
      10     H     0.40229  0.40229  0.00000  0.19543
      11     H     0.40379  0.40379  0.00000  0.19241
      12     H     0.41161  0.41161  0.00000  0.17678
      13     N     3.85960  3.85960  0.00000 -0.71921
      14     N     3.85010  3.85010  0.00000 -0.70019
      15     H     0.29953  0.29953  0.00000  0.40093
      16     H     0.29875  0.29875  0.00000  0.40249
      17     H     0.30418  0.30418  0.00000  0.39164
      18     H     0.30968  0.30968  0.00000  0.38064

   Total alpha = 32.00000, Total beta = 32.00000, Total charge =  1.00000

*** Psi4 exiting successfully. Buy a developer a beer!
