                               Psi4 1.1 release

  ==> Input File <==

--------------------------------------------------------------------------
set {
	reference rks
	basis cc-pvdz
}

set_num_threads( 8 )
memory 2 gb

molecule MOL {
0 1

O	 1.014300	 -0.002300	 0.060500
O	 2.462400	 -0.107500	 -0.002400
H	 0.902987	 -0.491966	 0.897660
H	 2.655500	 0.713700	 0.488700

	symmetry c1
}
set optking { dynamic_level = 1 }
set optking {
	frozen_dihedral = ("
		3 1 2 4
	")
}

ee,wfn = energy('b3lyp-d3', return_wfn=True)
oeprop( wfn, 'DIPOLE', 'QUADRUPOLE', 'MULLIKEN_CHARGES')
f=open( 'psi4out.xyz', 'w' )
f.write( "4  " )
f.write( str(ee) + "\n" )
f.write( MOL.save_string_xyz() )
f.close()
--------------------------------------------------------------------------

    Molecular point group: c1

    Geometry (in Angstrom), charge = 0, multiplicity = 1:

       Center              X                  Y                   Z               Mass
    ------------   -----------------  -----------------  -----------------  -----------------
           O         -0.726473932483     0.042774281586    -0.007915822936    15.994914619560
           O          0.721626067517    -0.062425718414    -0.070815822936    15.994914619560
           H         -0.837786932483    -0.446891718414     0.829244177064     1.007825032070
           H          0.914726067517     0.758774281586     0.420284177064     1.007825032070

  Charge       = 0
  Multiplicity = 1
  Basis Set: CC-PVDZ
    Blend: CC-PVDZ
   => B3LYP Composite Functional <=
  Basis Set: (CC-PVDZ AUX)
    Blend: CC-PVDZ-JKFIT

    Orbital Energies (a.u.)
    -----------------------

    Doubly Occupied:

       1A    -19.189727     2A    -19.189687     3A     -1.115003
       4A     -0.886760     5A     -0.526782     6A     -0.473576
       7A     -0.419842     8A     -0.291100     9A     -0.290739

  @DF-RKS Final Energy:  -151.54862931233620

   => Energetics <=

    Nuclear Repulsion Energy =             36.8206875164494107
    One-Electron Energy =                -281.5883559024284750
    Two-Electron Energy =                 107.6809263151579330
    DFT Exchange-Correlation Energy =     -14.4616185115151090
    Empirical Dispersion Energy =          -0.0002687300000000
    PCM Polarization Energy =               0.0000000000000000
    EFP Energy =                            0.0000000000000000
    Total Energy =                       -151.5486293123362032

  Mulliken Charges: (a.u.)
   Center  Symbol    Alpha    Beta     Spin     Total
       1     O     4.08822  4.08822  0.00000 -0.17645
       2     O     4.08821  4.08821  0.00000 -0.17641
       3     H     0.41178  0.41178  0.00000  0.17645
       4     H     0.41179  0.41179  0.00000  0.17641

   Total alpha =  9.00000, Total beta =  9.00000, Total charge =  0.00000

*** Psi4 exiting successfully. Buy a developer a beer!
