                               Psi4 1.1 release

  ==> Input File <==

--------------------------------------------------------------------------
set_num_threads(1)
set_memory(3145728000)

set { reference rks }
set { basis 6-31G* }

molecule MOL {
    1 1
    noreorient
    nocom
    symmetry c1
    C    0.000000   0.000000  -0.177864
    C    0.036678   1.219374   0.524165
    C    0.031764   1.213119   1.915444
    C   -0.000000  -0.000000   2.610107
    C   -0.031764  -1.213119   1.915444
    C   -0.036677  -1.219374   0.524165
    C    0.000000  -0.000000  -1.644734
    H    0.018170   2.164705  -0.010853
    H    0.042402   2.152895   2.457886
    H   -0.000000  -0.000000   3.695756
    H   -0.042402  -2.152895   2.457886
    H   -0.018170  -2.164705  -0.010853
    N    0.980419  -0.606060  -2.308461
    N   -0.980419   0.606060  -2.308461
    H   -1.075891   0.555833  -3.315997
    H   -1.631577   1.201131  -1.813317
    H    1.631577  -1.201131  -1.813317
    H    1.075890  -0.555834  -3.315997
}

set optking { frozen_dihedral = (" 2 1 7 13 ") }

set optking { dynamic_level = 1
 geom_maxiter = 250
 print_trajectory_xyz_file = True }

energy, wfn = optimize('B3LYP-D3', return_wfn=True)

import os
os.chdir(os.environ['HTMD_PSI4_WORKDIR'])

oeprop(wfn, 'DIPOLE', 'QUADRUPOLE', 'MULLIKEN_CHARGES')

with open('psi4out.xyz', 'w') as f:
    f.write('18 ' )
    f.write('%.12f\n' % energy)
    f.write(MOL.save_string_xyz())
--------------------------------------------------------------------------

    Molecular point group: c1
  Charge       = 1
  Multiplicity = 1
  Basis Set: 6-31G*
    Blend: 6-31G*
   => B3LYP Composite Functional <=
  Basis Set: (6-31G* AUX)
    Blend: CC-PVDZ-JKFIT
  @DF-RKS Final Energy:  -381.46389334720430
    Total Energy =                       -381.4638933472042481
    Molecular point group: c1
  Basis Set: 6-31G*
    Blend: 6-31G*
  Basis Set: (6-31G* AUX)
    Blend: CC-PVDZ-JKFIT
   => B3LYP Composite Functional <=
  Basis Set: 6-31G*
    Blend: 6-31G*
   => B3LYP Composite Functional <=
  Basis Set: (6-31G* AUX)
    Blend: CC-PVDZ-JKFIT
  @DF-RKS Final Energy:  -381.46711217829449
    Total Energy =                       -381.4671121782944851
  Basis Set: 6-31G*
    Blend: 6-31G*
  Basis Set: (6-31G* AUX)
  @DF-RKS Final Energy:  -381.46803160579685
    Total Energy =                       -381.4680316057969094
  @DF-RKS Final Energy:  -381.46816163420436
    Total Energy =                       -381.4681616342044208
  @DF-RKS Final Energy:  -381.46817029174707
    Total Energy =                       -381.4681702917470716
   => B3LYP Composite Functional <=
  Basis Set: (6-31G* AUX)
    Blend: CC-PVDZ-JKFIT
  @DF-RKS Final Energy:  -381.46817307882446
    Total Energy =                       -381.4681730788244636
  Basis Set: 6-31G*
    Blend: 6-31G*
  Basis Set: (6-31G* AUX)
    Blend: CC-PVDZ-JKFIT
   => B3LYP Composite Functional <=
  Charge       = 1
  Multiplicity = 1
  Basis Set: 6-31G*
    Blend: 6-31G*
   => B3LYP Composite Functional <=
  Basis Set: (6-31G* AUX)
    Blend: CC-PVDZ-JKFIT

    Orbital Energies (a.u.)
    -----------------------

    Doubly Occupied:

       1A    -14.571924     2A    -14.571815     3A    -10.499430
       4A    -10.370472     5A    -10.352841     6A    -10.352161
       7A    -10.338342     8A    -10.337199     9A    -10.337070
      10A     -1.186780    11A     -1.095710    12A     -1.011653
      13A     -0.924367    14A     -0.898727    15A     -0.844955
      16A     -0.786703    17A     -0.769694    18A     -0.748489
      19A     -0.730009    20A     -0.689633    21A     -0.668236
      22A     -0.621288    23A     -0.620333    24A     -0.581039
      25A     -0.576059    26A     -0.570059    27A     -0.517415
      28A     -0.501064    29A     -0.494909    30A     -0.476005
      31A     -0.408464    32A     -0.402211

  @DF-RKS Final Energy:  -381.46817322133660

   => Energetics <=

    Nuclear Repulsion Energy =            416.7551425122341016
    One-Electron Energy =               -1328.7892979425141675
    Two-Electron Energy =                 574.9829095272910990
    DFT Exchange-Correlation Energy =     -44.4050018383475731
    Empirical Dispersion Energy =          -0.0119254800000000
    PCM Polarization Energy =               0.0000000000000000
    EFP Energy =                            0.0000000000000000
    Total Energy =                       -381.4681732213365422
    Molecular point group: c1
  Basis Set: 6-31G*
    Blend: 6-31G*
  Basis Set: (6-31G* AUX)
    Blend: CC-PVDZ-JKFIT
   => B3LYP Composite Functional <=

  -Total Gradient:
     Atom            X                  Y                   Z
    ------   -----------------  -----------------  -----------------
       1       -0.005314077352     0.002040655502    -0.000147439271
       2        0.004364618619    -0.000218178384     0.000108819999
       3        0.000020937559     0.000003004564     0.000002120235
       4        0.000001398945     0.000001314034    -0.000002559570
       5       -0.000020236160    -0.000003161007    -0.000000761747
       6        0.000017808606    -0.000003872113     0.000000670624
       7       -0.001587743695    -0.005693162624    -0.000027669226
       8       -0.000004417209    -0.000002163106     0.000001936164
       9       -0.000003864867    -0.000000828395     0.000000871759
      10        0.000001009525     0.000000290456    -0.000000109481
      11        0.000004677847     0.000000521197     0.000001788006
      12       -0.000001471738     0.000003272510     0.000001334713
      13        0.002512128046     0.003899526718     0.000069797629
      14        0.000000861934    -0.000035670912     0.000015558822
      15        0.000000922319     0.000012304573    -0.000009401420
      16       -0.000008371154     0.000009187058    -0.000002523411
      17       -0.000001443844    -0.000000916918    -0.000003952595
      18       -0.000002557457    -0.000004952046    -0.000011160155

  **** Optimization is complete! (in 7 steps) ****
    Final optimized geometry and variables:
    Molecular point group: c1

    Geometry (in Angstrom), charge = 1, multiplicity = 1:

    C           -0.069124519647    -0.013257850084    -0.177251910777
    C           -0.025149605752     1.211010730800     0.510481843437
    C            0.023093423215     1.208549231271     1.902585511644
    C            0.026861990932    -0.002012460132     2.601403087441
    C           -0.003542218187    -1.218898007887     1.913307416880
    C           -0.032784781102    -1.231813786291     0.521156383498
    C           -0.030892255096    -0.013198220459    -1.650088219380
    H           -0.008750342660     2.148675637305    -0.037819164794
    H            0.066121170560     2.150077909925     2.440561979434
    H            0.059135614552     0.002501115996     3.686558182505
    H           -0.002917558778    -2.156038828631     2.460559731034
    H           -0.063665296397    -2.174414766494    -0.018395208660
    N            0.956866444515    -0.641239955217    -2.274723732859
    N           -0.944616751071     0.672352180738    -2.325124419066
    H           -0.917528361312     0.797629748109    -3.331100133225
    H           -1.730608187613     1.072677792013    -1.828514171438
    H            1.691740674144    -1.074054589643    -1.729546652187
    H            1.005760559697    -0.738546881319    -3.283051523486

  Mulliken Charges: (a.u.)
   Center  Symbol    Alpha    Beta     Spin     Total
       1     C     2.97697  2.97697  0.00000  0.04606
       2     C     3.07383  3.07383  0.00000 -0.14765
       3     C     3.06215  3.06215  0.00000 -0.12430
       4     C     3.05246  3.05246  0.00000 -0.10493
       5     C     3.06310  3.06310  0.00000 -0.12620
       6     C     3.07839  3.07839  0.00000 -0.15678
       7     C     2.73633  2.73633  0.00000  0.52734
       8     H     0.41334  0.41334  0.00000  0.17333
       9     H     0.40627  0.40627  0.00000  0.18747
      10     H     0.40523  0.40523  0.00000  0.18954
      11     H     0.40629  0.40629  0.00000  0.18741
      12     H     0.41349  0.41349  0.00000  0.17302
      13     N     3.85212  3.85212  0.00000 -0.70423
      14     N     3.85414  3.85414  0.00000 -0.70827
      15     H     0.30546  0.30546  0.00000  0.38909
      16     H     0.29747  0.29747  0.00000  0.40505
      17     H     0.29752  0.29752  0.00000  0.40497
      18     H     0.30546  0.30546  0.00000  0.38909

   Total alpha = 32.00000, Total beta = 32.00000, Total charge =  1.00000

*** Psi4 exiting successfully. Buy a developer a beer!
