                              Psi4 1.0.54 Driver

  ==> Input File <==

--------------------------------------------------------------------------
set_num_threads(1)
set_memory(3145728000)

set { reference rks }
set { basis 6-31G* }

molecule MOL {
    1 1
    noreorient
    nocom
    symmetry c1
    C    0.000000   0.000000  -0.177864
    C    0.036678   1.219374   0.524165
    C    0.031764   1.213119   1.915444
    C   -0.000000  -0.000000   2.610107
    C   -0.031764  -1.213119   1.915444
    C   -0.036677  -1.219374   0.524165
    C    0.000000  -0.000000  -1.644734
    H    0.018170   2.164705  -0.010853
    H    0.042402   2.152895   2.457886
    H   -0.000000  -0.000000   3.695756
    H   -0.042402  -2.152895   2.457886
    H   -0.018170  -2.164705  -0.010853
    N   -0.712590  -0.905950  -2.308460
    N    0.712590   0.905950  -2.308461
    H    0.673432   1.006469  -3.315997
    H    1.377190   1.485970  -1.813317
    H   -0.332251  -1.334289  -3.142218
    H   -1.609514  -1.246906  -1.982819
}

set optking { frozen_dihedral = (" 1 7 13 17 ") }

set optking { dynamic_level = 1
 geom_maxiter = 250
 print_trajectory_xyz_file = True }

energy, wfn = optimize('B3LYP-D3', return_wfn=True)

import os
os.chdir(os.environ['HTMD_PSI4_WORKDIR'])

oeprop(wfn, 'DIPOLE', 'QUADRUPOLE', 'MULLIKEN_CHARGES')

with open('psi4out.xyz', 'w') as f:
    f.write('18 ' )
    f.write('%.12f\n' % energy)
    f.write(MOL.save_string_xyz())
--------------------------------------------------------------------------

    Molecular point group: c1
  Charge       = 1
  Multiplicity = 1
  Basis Set: 6-31G*
   => B3LYP-D3 Composite Functional <=
  Basis Set:
  @DF-RKS Final Energy:  -381.46136164474433
    Total Energy =                       -381.4613616447443292
    Molecular point group: c1
  Basis Set: 6-31G*
  Basis Set:
   => B3LYP-D3 Composite Functional <=
  Basis Set: 6-31G*
   => B3LYP-D3 Composite Functional <=
  Basis Set:
  @DF-RKS Final Energy:  -381.46451312964223
    Total Energy =                       -381.4645131296422278
  Basis Set: 6-31G*
  Basis Set:
   => B3LYP-D3 Composite Functional <=
  Basis Set: 6-31G*
   => B3LYP-D3 Composite Functional <=
  Basis Set:
  @DF-RKS Final Energy:  -381.46627195366295
    Total Energy =                       -381.4662719536630107
  Basis Set: 6-31G*
  Basis Set:
  @DF-RKS Final Energy:  -381.46649280907747
    Total Energy =                       -381.4664928090775220
   => B3LYP-D3 Composite Functional <=
  Basis Set:
  @DF-RKS Final Energy:  -381.46651212270945
    Total Energy =                       -381.4665121227095028
  Basis Set: 6-31G*
  Basis Set:
   => B3LYP-D3 Composite Functional <=
  Basis Set: 6-31G*
   => B3LYP-D3 Composite Functional <=
  Basis Set:
  @DF-RKS Final Energy:  -381.46651466662331
    Total Energy =                       -381.4665146666231408
  Basis Set: 6-31G*
  Basis Set:
   => B3LYP-D3 Composite Functional <=
  Charge       = 1
  Multiplicity = 1
  Basis Set: 6-31G*
   => B3LYP-D3 Composite Functional <=
  Basis Set:

    Orbital Energies (a.u.)
    -----------------------

    Doubly Occupied:

       1A    -14.569066     2A    -14.560505     3A    -10.496084
       4A    -10.375082     5A    -10.360138     6A    -10.359036
       7A    -10.347247     8A    -10.343458     9A    -10.343288
      10A     -1.181414    11A     -1.088619    12A     -1.016829
      13A     -0.928094    14A     -0.905277    15A     -0.844005
      16A     -0.784437    17A     -0.771903    18A     -0.740910
      19A     -0.732171    20A     -0.685445    21A     -0.672005
      22A     -0.629602    23A     -0.615605    24A     -0.585695
      25A     -0.581593    26A     -0.571121    27A     -0.521375
      28A     -0.508541    29A     -0.500726    30A     -0.471345
      31A     -0.415692    32A     -0.408808

  @DF-RKS Final Energy:  -381.46651483781579

   => Energetics <=

    Nuclear Repulsion Energy =            416.7505715403759723
    One-Electron Energy =               -1328.6580523065942998
    Two-Electron Energy =                 574.8557370899781063
    DFT Exchange-Correlation Energy =     -44.4028060715755473
    Empirical Dispersion Energy =          -0.0119650900000000
    PCM Polarization Energy =               0.0000000000000000
    EFP Energy =                            0.0000000000000000
    Total Energy =                       -381.4665148378157369
    Molecular point group: c1
  Basis Set: 6-31G*
  Basis Set:
   => B3LYP-D3 Composite Functional <=

  -Total Gradient:
     Atom            X                  Y                   Z
    ------   -----------------  -----------------  -----------------
       1        0.004517516408    -0.003469576362    -0.000031655911
       2        0.000011878151     0.000007061418     0.000012016823
       3       -0.000009398438    -0.000005881521    -0.000009376840
       4        0.000002974152     0.000006005673     0.000005865470
       5       -0.000003060287    -0.000002447267    -0.000011263776
       6        0.000020261951     0.000015423505    -0.000011821236
       7       -0.005721780077     0.002988550679     0.001759257016
       8        0.000000173165    -0.000000132545    -0.000007951785
       9       -0.000000735472     0.000000704858    -0.000004437219
      10        0.000000309252    -0.000000440289    -0.000002625262
      11       -0.000003679714    -0.000000058445    -0.000005609549
      12       -0.000012834267    -0.000002899631    -0.000008809120
      13       -0.002100265878     0.006479959979    -0.006211814909
      14       -0.000031101758     0.000044633516    -0.000000895035
      15        0.000000596386     0.000001901556     0.000002529820
      16       -0.000008010452    -0.000001762541     0.000004603894
      17        0.003336693909    -0.006048478347     0.004507916095
      18        0.000003566850    -0.000010327433    -0.000015561356

  **** Optimization is complete! (in 7 steps) ****
    Final optimized geometry and variables:
    Molecular point group: c1

    Geometry (in Angstrom), charge = 1, multiplicity = 1:

    C           -0.032735855082     0.021858176882    -0.184297970292
    C            0.045432238334     1.234495842790     0.529753295572
    C            0.062186539695     1.217473016871     1.919660443302
    C            0.005296757352    -0.001443298903     2.604199392193
    C           -0.073642979644    -1.207619023842     1.900731885250
    C           -0.099892954064    -1.201953055634     0.510248057952
    C           -0.029396620652     0.028159897610    -1.645991653487
    H            0.042582412449     2.183952592013     0.001521015363
    H            0.106501791558     2.151290721587     2.470545996530
    H            0.020544849081    -0.011000341550     3.689755248091
    H           -0.106007017778    -2.150795931127     2.436291101986
    H           -0.120062633998    -2.143639246429    -0.030643602421
    N           -0.723304913570    -0.879647157035    -2.347434975593
    N            0.706645190454     0.915007460776    -2.308296833670
    H            0.639863583996     1.025031498200    -3.313887201328
    H            1.371368576997     1.498993238823    -1.817512789174
    H           -0.338307160592    -1.295380922283    -3.188944016048
    H           -1.368213804535    -1.473539468750    -1.840420394226

  Mulliken Charges: (a.u.)
   Center  Symbol    Alpha    Beta     Spin     Total
       1     C     2.95195  2.95195  0.00000  0.09610
       2     C     3.08166  3.08166  0.00000 -0.16333
       3     C     3.06228  3.06228  0.00000 -0.12456
       4     C     3.05070  3.05070  0.00000 -0.10140
       5     C     3.06234  3.06234  0.00000 -0.12468
       6     C     3.08043  3.08043  0.00000 -0.16086
       7     C     2.73638  2.73638  0.00000  0.52724
       8     H     0.41303  0.41303  0.00000  0.17395
       9     H     0.40451  0.40451  0.00000  0.19098
      10     H     0.40277  0.40277  0.00000  0.19445
      11     H     0.40469  0.40469  0.00000  0.19062
      12     H     0.41644  0.41644  0.00000  0.16711
      13     N     3.86328  3.86328  0.00000 -0.72656
      14     N     3.85677  3.85677  0.00000 -0.71355
      15     H     0.30333  0.30333  0.00000  0.39334
      16     H     0.30035  0.30035  0.00000  0.39930
      17     H     0.30525  0.30525  0.00000  0.38951
      18     H     0.30382  0.30382  0.00000  0.39235

   Total alpha = 32.00000, Total beta = 32.00000, Total charge =  1.00000

*** Psi4 exiting successfully. Buy a developer a beer!
