                               Psi4 1.1 release

  ==> Input File <==

--------------------------------------------------------------------------
set_num_threads(1)
set_memory(3145728000)

set { reference rks }
set { basis 6-31G* }

molecule MOL {
    1 1
    noreorient
    nocom
    symmetry c1
    C    0.000000   0.000000  -0.177864
    C    0.036678   1.219374   0.524165
    C    0.031764   1.213119   1.915444
    C   -0.000000  -0.000000   2.610107
    C   -0.031764  -1.213119   1.915444
    C   -0.036677  -1.219374   0.524165
    C    0.000000  -0.000000  -1.644734
    H    0.018170   2.164705  -0.010853
    H    0.042402   2.152895   2.457886
    H   -0.000000  -0.000000   3.695756
    H   -0.042402  -2.152895   2.457886
    H   -0.018170  -2.164705  -0.010853
    N   -0.546038   1.015072  -2.308461
    N    0.546038  -1.015073  -2.308460
    H    0.653832  -1.019311  -3.315997
    H    0.812422  -1.855998  -1.813316
    H   -0.812421   1.855998  -1.813317
    H   -0.653831   1.019311  -3.315997
}

set optking { frozen_dihedral = (" 2 1 7 13 ") }

set optking { dynamic_level = 1
 geom_maxiter = 250
 print_trajectory_xyz_file = True }

energy, wfn = optimize('B3LYP-D3', return_wfn=True)

import os
os.chdir(os.environ['HTMD_PSI4_WORKDIR'])

oeprop(wfn, 'DIPOLE', 'QUADRUPOLE', 'MULLIKEN_CHARGES')

with open('psi4out.xyz', 'w') as f:
    f.write('18 ' )
    f.write('%.12f\n' % energy)
    f.write(MOL.save_string_xyz())
--------------------------------------------------------------------------

    Molecular point group: c1
  Charge       = 1
  Multiplicity = 1
  Basis Set: 6-31G*
    Blend: 6-31G*
   => B3LYP Composite Functional <=
  Basis Set: (6-31G* AUX)
    Blend: CC-PVDZ-JKFIT
  @DF-RKS Final Energy:  -381.46465686784370
    Total Energy =                       -381.4646568678437006
    Molecular point group: c1
  Basis Set: 6-31G*
    Blend: 6-31G*
  Basis Set: (6-31G* AUX)
    Blend: CC-PVDZ-JKFIT
   => B3LYP Composite Functional <=
  Basis Set: 6-31G*
    Blend: 6-31G*
   => B3LYP Composite Functional <=
  Basis Set: (6-31G* AUX)
    Blend: CC-PVDZ-JKFIT
  @DF-RKS Final Energy:  -381.46812403155491
    Total Energy =                       -381.4681240315549644
  Basis Set: 6-31G*
    Blend: 6-31G*
  Basis Set: (6-31G* AUX)
  @DF-RKS Final Energy:  -381.46978770264121
    Total Energy =                       -381.4697877026412129
  @DF-RKS Final Energy:  -381.47025875087684
    Total Energy =                       -381.4702587508768374
  @DF-RKS Final Energy:  -381.47029776331232
    Total Energy =                       -381.4702977633122600
  @DF-RKS Final Energy:  -381.47031485163791
    Total Energy =                       -381.4703148516379088
   => B3LYP Composite Functional <=
  Basis Set: (6-31G* AUX)
    Blend: CC-PVDZ-JKFIT
  @DF-RKS Final Energy:  -381.47031597868295
    Total Energy =                       -381.4703159786830042
  Basis Set: 6-31G*
    Blend: 6-31G*
  Basis Set: (6-31G* AUX)
    Blend: CC-PVDZ-JKFIT
   => B3LYP Composite Functional <=
  Charge       = 1
  Multiplicity = 1
  Basis Set: 6-31G*
    Blend: 6-31G*
   => B3LYP Composite Functional <=
  Basis Set: (6-31G* AUX)
    Blend: CC-PVDZ-JKFIT

    Orbital Energies (a.u.)
    -----------------------

    Doubly Occupied:

       1A    -14.567286     2A    -14.567236     3A    -10.496994
       4A    -10.373935     5A    -10.357124     6A    -10.356934
       7A    -10.343973     8A    -10.341073     9A    -10.341019
      10A     -1.183376    11A     -1.091131    12A     -1.014856
      13A     -0.927114    14A     -0.902969    15A     -0.845716
      16A     -0.785592    17A     -0.774156    18A     -0.740032
      19A     -0.733838    20A     -0.688825    21A     -0.669160
      22A     -0.626796    23A     -0.615889    24A     -0.588954
      25A     -0.579723    26A     -0.573554    27A     -0.518377
      28A     -0.506470    29A     -0.498732    30A     -0.472414
      31A     -0.412279    32A     -0.406373

  @DF-RKS Final Energy:  -381.47031618828197

   => Energetics <=

    Nuclear Repulsion Energy =            416.9102633261408073
    One-Electron Energy =               -1329.0094604400821936
    Two-Electron Energy =                 575.0468760980065781
    DFT Exchange-Correlation Energy =     -44.4061328923470953
    Empirical Dispersion Energy =          -0.0118622800000000
    PCM Polarization Energy =               0.0000000000000000
    EFP Energy =                            0.0000000000000000
    Total Energy =                       -381.4703161882819131
    Molecular point group: c1
  Basis Set: 6-31G*
    Blend: 6-31G*
  Basis Set: (6-31G* AUX)
    Blend: CC-PVDZ-JKFIT
   => B3LYP Composite Functional <=

  -Total Gradient:
     Atom            X                  Y                   Z
    ------   -----------------  -----------------  -----------------
       1        0.002838838521     0.000302461388    -0.000041025287
       2       -0.001493621956     0.000041696542     0.000023731907
       3        0.000004225762     0.000007454458    -0.000009112659
       4       -0.000005476730     0.000002806872    -0.000005067312
       5       -0.000008259855    -0.000009392355    -0.000009719881
       6        0.000018735606    -0.000008142020     0.000016416373
       7       -0.002748411681    -0.001112941218     0.000038873548
       8        0.000002118638    -0.000004955861    -0.000005425995
       9       -0.000003502419    -0.000003446480     0.000004423260
      10        0.000003236089     0.000000074521     0.000000337640
      11        0.000001518995     0.000004027746     0.000003536947
      12        0.000003220237     0.000004636451    -0.000010732244
      13        0.001390695905     0.000759575562    -0.000012340539
      14       -0.000001266676     0.000021709368    -0.000005386832
      15       -0.000007367484     0.000000508916    -0.000007683102
      16        0.000011680400    -0.000014478571     0.000006482558
      17       -0.000014247605     0.000011876315     0.000000896758
      18        0.000007680877    -0.000000762261    -0.000011087440

  **** Optimization is complete! (in 8 steps) ****
    Final optimized geometry and variables:
    Molecular point group: c1

    Geometry (in Angstrom), charge = 1, multiplicity = 1:

    C            0.016431103149    -0.000419798553    -0.177288865418
    C            0.038313201851     1.218466212727     0.527468383298
    C            0.019756793873     1.212772525474     1.918194691470
    C           -0.032485019149     0.000447387618     2.613101506517
    C           -0.064951185052    -1.212163167954     1.917870997784
    C           -0.041356167369    -1.218374527060     0.527088722151
    C            0.016560937541    -0.002645604329    -1.643547657939
    H            0.128499017528     2.162434859717    -0.002466108161
    H            0.056250105583     2.151915054283     2.460571516906
    H           -0.049592745593     0.000909310457     3.698619288868
    H           -0.122210142139    -2.150804069989     2.459312595667
    H           -0.119728843808    -2.162241754413    -0.004942901543
    N           -0.540653152528     1.003022825593    -2.314009387919
    N            0.593610926006    -1.000402249424    -2.308845871394
    H            0.543457215132    -1.088463748350    -3.316893956901
    H            1.174490024155    -1.667671395274    -1.818723209755
    H           -1.132971151267     1.666446503244    -1.832429947665
    H           -0.483417917914     1.086770636233    -3.322078795966

  Mulliken Charges: (a.u.)
   Center  Symbol    Alpha    Beta     Spin     Total
       1     C     2.95191  2.95191  0.00000  0.09618
       2     C     3.08373  3.08373  0.00000 -0.16745
       3     C     3.06247  3.06247  0.00000 -0.12494
       4     C     3.05134  3.05134  0.00000 -0.10268
       5     C     3.06216  3.06216  0.00000 -0.12431
       6     C     3.08329  3.08329  0.00000 -0.16659
       7     C     2.71800  2.71800  0.00000  0.56400
       8     H     0.41465  0.41465  0.00000  0.17070
       9     H     0.40529  0.40529  0.00000  0.18942
      10     H     0.40358  0.40358  0.00000  0.19284
      11     H     0.40529  0.40529  0.00000  0.18943
      12     H     0.41486  0.41486  0.00000  0.17027
      13     N     3.86617  3.86617  0.00000 -0.73234
      14     N     3.86541  3.86541  0.00000 -0.73083
      15     H     0.30577  0.30577  0.00000  0.38845
      16     H     0.30002  0.30002  0.00000  0.39997
      17     H     0.30029  0.30029  0.00000  0.39942
      18     H     0.30577  0.30577  0.00000  0.38846

   Total alpha = 32.00000, Total beta = 32.00000, Total charge =  1.00000

*** Psi4 exiting successfully. Buy a developer a beer!
