                               Psi4 1.1 release

  ==> Input File <==

--------------------------------------------------------------------------
set_num_threads(1)
set_memory(3145728000)

set { reference rks }
set { basis 6-31G* }

molecule MOL {
    1 1
    noreorient
    nocom
    symmetry c1
    C    0.000000   0.000000  -0.177864
    C    0.036678   1.219374   0.524165
    C    0.031764   1.213119   1.915444
    C   -0.000000  -0.000000   2.610107
    C   -0.031764  -1.213119   1.915444
    C   -0.036677  -1.219374   0.524165
    C    0.000000  -0.000000  -1.644734
    H    0.018170   2.164705  -0.010853
    H    0.042402   2.152895   2.457886
    H   -0.000000  -0.000000   3.695756
    H   -0.042402  -2.152895   2.457886
    H   -0.018170  -2.164705  -0.010853
    N   -0.712590  -0.905950  -2.308460
    N    0.712590   0.905950  -2.308461
    H    0.673432   1.006469  -3.315997
    H    1.377190   1.485970  -1.813317
    H   -1.368812  -1.493895  -1.811493
    H   -0.681929  -0.999048  -3.317004
}

set optking { frozen_dihedral = (" 1 7 13 17 ") }

set optking { dynamic_level = 1
 geom_maxiter = 250
 print_trajectory_xyz_file = True }

energy, wfn = optimize('B3LYP-D3', return_wfn=True)

import os
os.chdir(os.environ['HTMD_PSI4_WORKDIR'])

oeprop(wfn, 'DIPOLE', 'QUADRUPOLE', 'MULLIKEN_CHARGES')

with open('psi4out.xyz', 'w') as f:
    f.write('18 ' )
    f.write('%.12f\n' % energy)
    f.write(MOL.save_string_xyz())
--------------------------------------------------------------------------

    Molecular point group: c1
  Charge       = 1
  Multiplicity = 1
  Basis Set: 6-31G*
    Blend: 6-31G*
   => B3LYP Composite Functional <=
  Basis Set: (6-31G* AUX)
    Blend: CC-PVDZ-JKFIT
  @DF-RKS Final Energy:  -381.47050316701706
    Total Energy =                       -381.4705031670170570
    Molecular point group: c1
  Basis Set: 6-31G*
    Blend: 6-31G*
  Basis Set: (6-31G* AUX)
    Blend: CC-PVDZ-JKFIT
   => B3LYP Composite Functional <=
  Basis Set: 6-31G*
    Blend: 6-31G*
   => B3LYP Composite Functional <=
  Basis Set: (6-31G* AUX)
    Blend: CC-PVDZ-JKFIT
  @DF-RKS Final Energy:  -381.47050593324167
    Total Energy =                       -381.4705059332416113
  Basis Set: 6-31G*
    Blend: 6-31G*
  Basis Set: (6-31G* AUX)
    Blend: CC-PVDZ-JKFIT
   => B3LYP Composite Functional <=
  Charge       = 1
  Multiplicity = 1
  Basis Set: 6-31G*
    Blend: 6-31G*
   => B3LYP Composite Functional <=
  Basis Set: (6-31G* AUX)
    Blend: CC-PVDZ-JKFIT

    Orbital Energies (a.u.)
    -----------------------

    Doubly Occupied:

       1A    -14.568106     2A    -14.568034     3A    -10.497215
       4A    -10.373200     5A    -10.356137     6A    -10.356096
       7A    -10.342923     8A    -10.340401     9A    -10.340340
      10A     -1.183858    11A     -1.092011    12A     -1.014249
      13A     -0.926573    14A     -0.902176    15A     -0.845440
      16A     -0.785753    17A     -0.773393    18A     -0.741748
      19A     -0.732907    20A     -0.688765    21A     -0.669047
      22A     -0.625481    23A     -0.617381    24A     -0.586971
      25A     -0.579001    26A     -0.572864    27A     -0.518326
      28A     -0.505454    29A     -0.498064    30A     -0.472863
      31A     -0.411643    32A     -0.405678

  @DF-RKS Final Energy:  -381.47050709291665

   => Energetics <=

    Nuclear Repulsion Energy =            416.9211887092136521
    One-Electron Energy =               -1329.0512787111615580
    Two-Electron Energy =                 575.0774926914052685
    DFT Exchange-Correlation Energy =     -44.4059782223740243
    Empirical Dispersion Energy =          -0.0119315600000000
    PCM Polarization Energy =               0.0000000000000000
    EFP Energy =                            0.0000000000000000
    Total Energy =                       -381.4705070929166482
    Molecular point group: c1
  Basis Set: 6-31G*
    Blend: 6-31G*
  Basis Set: (6-31G* AUX)
    Blend: CC-PVDZ-JKFIT
   => B3LYP Composite Functional <=

  -Total Gradient:
     Atom            X                  Y                   Z
    ------   -----------------  -----------------  -----------------
       1       -0.000051534431     0.000017602562     0.000022672974
       2        0.000012539788    -0.000004177437    -0.000024911853
       3       -0.000012685237    -0.000018612041     0.000002693866
       4        0.000007363794     0.000005992870    -0.000003315170
       5       -0.000013766864    -0.000000781748    -0.000008991771
       6        0.000006125138     0.000033047638     0.000014282373
       7        0.000127179792    -0.000101873714    -0.000032088750
       8       -0.000004550227     0.000001999563     0.000008883194
       9       -0.000003051088     0.000001409755    -0.000002254722
      10        0.000000053562    -0.000000087075    -0.000000590552
      11       -0.000002133340    -0.000000927323     0.000000232118
      12        0.000003693314    -0.000014024809    -0.000001399802
      13       -0.000222413261     0.000237293919     0.000017645981
      14        0.000012196408    -0.000005899122    -0.000002488487
      15        0.000030870397    -0.000003511336    -0.000003792030
      16       -0.000013523792     0.000007717999    -0.000009536781
      17        0.000124460230    -0.000134695624     0.000023516664
      18       -0.000000791822    -0.000019945885    -0.000022307407

  **** Optimization is complete! (in 3 steps) ****
    Final optimized geometry and variables:
    Molecular point group: c1

    Geometry (in Angstrom), charge = 1, multiplicity = 1:

    C            0.000574387128     0.000005972463    -0.177908776498
    C            0.036692358833     1.219301113590     0.524137614727
    C            0.031367803547     1.212851905759     1.915449931630
    C           -0.000016367805    -0.000296491168     2.609998765773
    C           -0.031058484429    -1.213346166513     1.915208942518
    C           -0.035608910080    -1.219414850863     0.523929025313
    C           -0.000243221132     0.000423914686    -1.644983168700
    H            0.017869537008     2.164706965867    -0.010724615844
    H            0.041313951891     2.152597866309     2.457974702853
    H           -0.000362172530    -0.000395822591     3.695651258446
    H           -0.041358599155    -2.153194772314     2.457547051905
    H           -0.016569688101    -2.164807168853    -0.011053715780
    N           -0.716000866234    -0.903134833808    -2.308233738876
    N            0.712629699309     0.906127844467    -2.308685339582
    H            0.674341754774     1.006306774700    -3.316314528433
    H            1.377306838011     1.485935253576    -1.813401783853
    H           -1.373754873168    -1.489216544628    -1.811072661204
    H           -0.677241147867    -1.004954960680    -3.315701964396

  Mulliken Charges: (a.u.)
   Center  Symbol    Alpha    Beta     Spin     Total
       1     C     2.95710  2.95710  0.00000  0.08580
       2     C     3.08203  3.08203  0.00000 -0.16406
       3     C     3.06248  3.06248  0.00000 -0.12496
       4     C     3.05149  3.05149  0.00000 -0.10297
       5     C     3.06249  3.06249  0.00000 -0.12497
       6     C     3.08220  3.08220  0.00000 -0.16440
       7     C     2.72186  2.72186  0.00000  0.55627
       8     H     0.41418  0.41418  0.00000  0.17163
       9     H     0.40545  0.40545  0.00000  0.18911
      10     H     0.40390  0.40390  0.00000  0.19221
      11     H     0.40545  0.40545  0.00000  0.18910
      12     H     0.41430  0.41430  0.00000  0.17141
      13     N     3.86317  3.86317  0.00000 -0.72635
      14     N     3.86330  3.86330  0.00000 -0.72660
      15     H     0.30569  0.30569  0.00000  0.38863
      16     H     0.29963  0.29963  0.00000  0.40073
      17     H     0.29962  0.29962  0.00000  0.40077
      18     H     0.30567  0.30567  0.00000  0.38866

   Total alpha = 32.00000, Total beta = 32.00000, Total charge =  1.00000

*** Psi4 exiting successfully. Buy a developer a beer!
