                               Psi4 1.1 release

  ==> Input File <==

--------------------------------------------------------------------------
set_num_threads(1)
set_memory(4203741184)

set { reference rks }
set { basis cc-pVDZ }

molecule MOL {
    0 1
    noreorient
    nocom
    symmetry c1
    O    1.141000   0.017000   0.083000
    C    2.558000   0.086000  -0.005000
    C    3.192000  -0.789000   1.067000
    O    4.537396  -0.386463   1.293367
    H    0.789000   0.590000  -0.620000
    H    2.874000   1.128000   0.115000
    H    2.871000  -0.243000  -1.001000
    H    3.178566  -1.839555   0.760258
    H    2.632248  -0.709196   2.005716
    H    4.891664  -0.975103   1.982485
}

set optking { frozen_dihedral = (" 1 2 3 4 ") }

energy, wfn = energy('B3LYP-D3', return_wfn=True)

import os
os.chdir(os.environ['HTMD_PSI4_WORKDIR'])

oeprop(wfn, 'DIPOLE', 'QUADRUPOLE', 'MULLIKEN_CHARGES')

with open('psi4out.xyz', 'w') as f:
    f.write('10 ' )
    f.write('%.12f\n' % energy)
    f.write(MOL.save_string_xyz())
--------------------------------------------------------------------------

    Molecular point group: c1

    Geometry (in Angstrom), charge = 0, multiplicity = 1:

       Center              X                  Y                   Z               Mass
    ------------   -----------------  -----------------  -----------------  -----------------
           O          1.141000000000     0.017000000000     0.083000000000    15.994914619560
           C          2.558000000000     0.086000000000    -0.005000000000    12.000000000000
           C          3.192000000000    -0.789000000000     1.067000000000    12.000000000000
           O          4.537396000000    -0.386463000000     1.293367000000    15.994914619560
           H          0.789000000000     0.590000000000    -0.620000000000     1.007825032070
           H          2.874000000000     1.128000000000     0.115000000000     1.007825032070
           H          2.871000000000    -0.243000000000    -1.001000000000     1.007825032070
           H          3.178566000000    -1.839555000000     0.760258000000     1.007825032070
           H          2.632248000000    -0.709196000000     2.005716000000     1.007825032070
           H          4.891664000000    -0.975103000000     1.982485000000     1.007825032070

  Charge       = 0
  Multiplicity = 1
  Basis Set: CC-PVDZ
    Blend: CC-PVDZ
   => B3LYP Composite Functional <=
  Basis Set: (CC-PVDZ AUX)
    Blend: CC-PVDZ-JKFIT

    Orbital Energies (a.u.)
    -----------------------

    Doubly Occupied:

       1A    -19.131260     2A    -19.131218     3A    -10.226057
       4A    -10.225863     5A     -1.018630     6A     -1.008141
       7A     -0.732379     8A     -0.603544     9A     -0.525432
      10A     -0.488390    11A     -0.464091    12A     -0.412070
      13A     -0.396430    14A     -0.349712    15A     -0.319534
      16A     -0.264300    17A     -0.262219

  @DF-RKS Final Energy:  -230.25626123448507

   => Energetics <=

    Nuclear Repulsion Energy =            129.5212124641099081
    One-Electron Energy =                -570.8031933435914880
    Two-Electron Energy =                 235.5696494327507367
    DFT Exchange-Correlation Energy =     -24.5395586577542204
    Empirical Dispersion Energy =          -0.0043711300000000
    PCM Polarization Energy =               0.0000000000000000
    EFP Energy =                            0.0000000000000000
    Total Energy =                       -230.2562612344850663

  Mulliken Charges: (a.u.)
   Center  Symbol    Alpha    Beta     Spin     Total
       1     O     4.14048  4.14048  0.00000 -0.28097
       2     C     2.93582  2.93582  0.00000  0.12835
       3     C     2.93599  2.93599  0.00000  0.12802
       4     O     4.14071  4.14071  0.00000 -0.28142
       5     H     0.42785  0.42785  0.00000  0.14430
       6     H     0.49689  0.49689  0.00000  0.00622
       7     H     0.49889  0.49889  0.00000  0.00222
       8     H     0.49876  0.49876  0.00000  0.00248
       9     H     0.49680  0.49680  0.00000  0.00639
      10     H     0.42780  0.42780  0.00000  0.14441

   Total alpha = 17.00000, Total beta = 17.00000, Total charge = -0.00000

*** Psi4 exiting successfully. Buy a developer a beer!
