                               Psi4 1.1 release

  ==> Input File <==

--------------------------------------------------------------------------
set_num_threads(1)
set_memory(4203741184)

set { reference rks }
set { basis cc-pVDZ }

molecule MOL {
    0 1
    noreorient
    nocom
    symmetry c1
    O    1.050400   0.042900  -0.048100
    C    2.474100   0.047400  -0.029000
    C    3.002600  -1.068900  -0.932000
    N    4.173746  -0.648705  -1.699693
    H    0.760400   0.728400   0.578000
    H    2.809900  -0.097900   1.003200
    H    2.817400   1.026800  -0.378600
    H    2.211679  -1.399534  -1.615275
    H    3.261094  -1.939193  -0.318137
    H    3.902076   0.081556  -2.357261
    H    4.491181  -1.432889  -2.269379
}

set optking { frozen_dihedral = (" 1 2 3 4 ") }

energy, wfn = energy('B3LYP-D3', return_wfn=True)

import os
os.chdir(os.environ['HTMD_PSI4_WORKDIR'])

oeprop(wfn, 'DIPOLE', 'QUADRUPOLE', 'MULLIKEN_CHARGES')

with open('psi4out.xyz', 'w') as f:
    f.write('11 ' )
    f.write('%.12f\n' % energy)
    f.write(MOL.save_string_xyz())
--------------------------------------------------------------------------

    Molecular point group: c1

    Geometry (in Angstrom), charge = 0, multiplicity = 1:

       Center              X                  Y                   Z               Mass
    ------------   -----------------  -----------------  -----------------  -----------------
           O          1.050400000000     0.042900000000    -0.048100000000    15.994914619560
           C          2.474100000000     0.047400000000    -0.029000000000    12.000000000000
           C          3.002600000000    -1.068900000000    -0.932000000000    12.000000000000
           N          4.173746000000    -0.648705000000    -1.699693000000    14.003074004780
           H          0.760400000000     0.728400000000     0.578000000000     1.007825032070
           H          2.809900000000    -0.097900000000     1.003200000000     1.007825032070
           H          2.817400000000     1.026800000000    -0.378600000000     1.007825032070
           H          2.211679000000    -1.399534000000    -1.615275000000     1.007825032070
           H          3.261094000000    -1.939193000000    -0.318137000000     1.007825032070
           H          3.902076000000     0.081556000000    -2.357261000000     1.007825032070
           H          4.491181000000    -1.432889000000    -2.269379000000     1.007825032070

  Charge       = 0
  Multiplicity = 1
  Basis Set: CC-PVDZ
    Blend: CC-PVDZ
   => B3LYP Composite Functional <=
  Basis Set: (CC-PVDZ AUX)
    Blend: CC-PVDZ-JKFIT

    Orbital Energies (a.u.)
    -----------------------

    Doubly Occupied:

       1A    -19.126337     2A    -14.302892     3A    -10.223194
       4A    -10.200808     5A     -1.009090     6A     -0.875255
       7A     -0.712296     8A     -0.596458     9A     -0.508122
      10A     -0.487918    11A     -0.442581    12A     -0.420075
      13A     -0.388623    14A     -0.362893    15A     -0.324034
      16A     -0.259794    17A     -0.228771

  @DF-RKS Final Energy:  -210.38765652687127

   => Energetics <=

    Nuclear Repulsion Energy =            130.7594805109715139
    One-Electron Energy =                -544.4719404564657452
    Two-Electron Energy =                 226.8192162751063563
    DFT Exchange-Correlation Energy =     -23.4896595064834202
    Empirical Dispersion Energy =          -0.0047533500000000
    PCM Polarization Energy =               0.0000000000000000
    EFP Energy =                            0.0000000000000000
    Total Energy =                       -210.3876565268712966

  Mulliken Charges: (a.u.)
   Center  Symbol    Alpha    Beta     Spin     Total
       1     O     4.14087  4.14087  0.00000 -0.28174
       2     C     2.92775  2.92775  0.00000  0.14450
       3     C     2.98276  2.98276  0.00000  0.03448
       4     N     3.59571  3.59571  0.00000 -0.19141
       5     H     0.43097  0.43097  0.00000  0.13807
       6     H     0.49915  0.49915  0.00000  0.00171
       7     H     0.50306  0.50306  0.00000 -0.00613
       8     H     0.49796  0.49796  0.00000  0.00408
       9     H     0.49221  0.49221  0.00000  0.01559
      10     H     0.46469  0.46469  0.00000  0.07062
      11     H     0.46488  0.46488  0.00000  0.07025

   Total alpha = 17.00000, Total beta = 17.00000, Total charge = -0.00000

*** Psi4 exiting successfully. Buy a developer a beer!
