                               Psi4 1.1 release

  ==> Input File <==

--------------------------------------------------------------------------
set {
	reference rks
	basis 6-31G*
}

set_num_threads( 8 )
memory 2 gb

molecule MOL {
1 1

C	 -0.179682	 0.155528	 -0.211017
C	 -0.108000	 1.434656	 0.371871
C	 -0.283897	 1.576401	 1.744711
C	 -0.521190	 0.451130	 2.540124
C	 -0.588300	 -0.821448	 1.964565
C	 -0.423352	 -0.974730	 0.591606
C	 -0.000000	 -0.000000	 -1.658508
H	 0.033423	 2.315952	 -0.247447
H	 -0.246229	 2.563905	 2.192986
H	 -0.654175	 0.566239	 3.611431
H	 -0.758857	 -1.693924	 2.586842
H	 -0.433702	 -1.969479	 0.155024
N	 -0.712589	 -0.905950	 -2.322235
N	 0.875194	 0.765203	 -2.304699
H	 0.969956	 0.761347	 -3.313546
H	 1.528581	 1.334586	 -1.782998
H	 -1.377189	 -1.485970	 -1.827091
H	 -0.673431	 -1.006470	 -3.329771

	symmetry c1
}
set optking { dynamic_level = 1 }
set optking {
	frozen_dihedral = ("
		1 7 13 17
	")
}

ee,wfn = optimize('b3lyp-d3', return_wfn=True)
oeprop( wfn, 'DIPOLE', 'QUADRUPOLE', 'MULLIKEN_CHARGES')
f=open( 'psi4out.xyz', 'w' )
f.write( "18  " )
f.write( str(ee) + "\n" )
f.write( MOL.save_string_xyz() )
f.close()
--------------------------------------------------------------------------

    Molecular point group: c1
  Charge       = 1
  Multiplicity = 1
  Basis Set: 6-31G*
    Blend: 6-31G*
   => B3LYP Composite Functional <=
  Basis Set: (6-31G* AUX)
    Blend: CC-PVDZ-JKFIT
  @DF-RKS Final Energy:  -381.46931012088930
    Total Energy =                       -381.4693101208893609
    Molecular point group: c1
  Basis Set: 6-31G*
    Blend: 6-31G*
  Basis Set: (6-31G* AUX)
    Blend: CC-PVDZ-JKFIT
   => B3LYP Composite Functional <=
  Basis Set: 6-31G*
    Blend: 6-31G*
   => B3LYP Composite Functional <=
  Basis Set: (6-31G* AUX)
    Blend: CC-PVDZ-JKFIT
  @DF-RKS Final Energy:  -381.46986747090739
    Total Energy =                       -381.4698674709074453
  Basis Set: 6-31G*
    Blend: 6-31G*
  Basis Set: (6-31G* AUX)
  @DF-RKS Final Energy:  -381.47008791025786
    Total Energy =                       -381.4700879102578028
  @DF-RKS Final Energy:  -381.47012833382814
    Total Energy =                       -381.4701283338281996
   => B3LYP Composite Functional <=
  Basis Set: (6-31G* AUX)
    Blend: CC-PVDZ-JKFIT
  @DF-RKS Final Energy:  -381.47013017032674
    Total Energy =                       -381.4701301703267404
  Basis Set: 6-31G*
    Blend: 6-31G*
  Basis Set: (6-31G* AUX)
    Blend: CC-PVDZ-JKFIT
   => B3LYP Composite Functional <=
  Charge       = 1
  Multiplicity = 1
  Basis Set: 6-31G*
    Blend: 6-31G*
   => B3LYP Composite Functional <=
  Basis Set: (6-31G* AUX)
    Blend: CC-PVDZ-JKFIT

    Orbital Energies (a.u.)
    -----------------------

    Doubly Occupied:

       1A    -14.568431     2A    -14.568091     3A    -10.497612
       4A    -10.373681     5A    -10.356682     6A    -10.356201
       7A    -10.342827     8A    -10.340665     9A    -10.340476
      10A     -1.184207    11A     -1.092390    12A     -1.014484
      13A     -0.926674    14A     -0.902429    15A     -0.845759
      16A     -0.786224    17A     -0.773416    18A     -0.742405
      19A     -0.733212    20A     -0.687493    21A     -0.669165
      22A     -0.625721    23A     -0.618943    24A     -0.587417
      25A     -0.579135    26A     -0.573543    27A     -0.518547
      28A     -0.505658    29A     -0.498372    30A     -0.472623
      31A     -0.411601    32A     -0.405853

  @DF-RKS Final Energy:  -381.47013059496624

   => Energetics <=

    Nuclear Repulsion Energy =            416.9069163922759458
    One-Electron Energy =               -1329.0063897298648499
    Two-Electron Energy =                 575.0471489420064017
    DFT Exchange-Correlation Energy =     -44.4058892793836719
    Empirical Dispersion Energy =          -0.0119169200000000
    PCM Polarization Energy =               0.0000000000000000
    EFP Energy =                            0.0000000000000000
    Total Energy =                       -381.4701305949662355
    Molecular point group: c1
  Basis Set: 6-31G*
    Blend: 6-31G*
  Basis Set: (6-31G* AUX)
    Blend: CC-PVDZ-JKFIT
   => B3LYP Composite Functional <=

  -Total Gradient:
     Atom            X                  Y                   Z
    ------   -----------------  -----------------  -----------------
       1       -0.001140747119     0.001230544999    -0.000205733058
       2        0.000004602713    -0.000012432888    -0.000026930346
       3       -0.000008575087    -0.000003037225     0.000005989852
       4        0.000001299624    -0.000012866470    -0.000000742589
       5       -0.000006252448     0.000016842278     0.000021435083
       6        0.000016887802    -0.000020059076    -0.000024691745
       7        0.002408091641    -0.002502939135     0.000488177713
       8        0.000000103832    -0.000001381395    -0.000007032610
       9       -0.000000716545     0.000000406889    -0.000005676663
      10        0.000001921807    -0.000004403072    -0.000000694112
      11        0.000000819346    -0.000001613084     0.000000124957
      12       -0.000011039124     0.000003310306    -0.000004471313
      13       -0.002898418038     0.003023482581    -0.000674172253
      14       -0.000024819035     0.000010190320     0.000022881716
      15        0.000007410088    -0.000002252241    -0.000003660453
      16        0.000009026515     0.000000582546     0.000005111338
      17        0.001644806260    -0.001721354197     0.000396200054
      18       -0.000007982543    -0.000008448417    -0.000003701036

  **** Optimization is complete! (in 6 steps) ****
    Final optimized geometry and variables:
    Molecular point group: c1

    Geometry (in Angstrom), charge = 1, multiplicity = 1:

    C            0.028134847568    -0.024586411032    -0.187952173962
    C            0.098320570108     1.254197374221     0.394849728545
    C           -0.078322523388     1.395225282609     1.767928091167
    C           -0.312395806036     0.269678773723     2.563573633262
    C           -0.376145385493    -1.002955195364     1.987995070314
    C           -0.211553688296    -1.155170938473     0.614800781922
    C            0.204009433767    -0.177826505800    -1.637500671561
    H            0.237698265751     2.136007232386    -0.224117888002
    H           -0.043263365977     2.382974931075     2.215902541030
    H           -0.445583183024     0.384446563487     3.634873610196
    H           -0.544021880269    -1.876075470369     2.610096120665
    H           -0.219391010140    -2.151086933955     0.180036096361
    N           -0.543395357404    -1.048670518681    -2.308891831025
    N            1.079444563420     0.587756950611    -2.282404610405
    H            1.169684566325     0.591856354195    -3.291712316948
    H            1.728993498101     1.160254188415    -1.759495424294
    H           -1.232321813416    -1.604377055605    -1.819082900064
    H           -0.384790477710    -1.270611817860    -3.284965954833

  Mulliken Charges: (a.u.)
   Center  Symbol    Alpha    Beta     Spin     Total
       1     C     2.95486  2.95486  0.00000  0.09028
       2     C     3.08163  3.08163  0.00000 -0.16327
       3     C     3.06243  3.06243  0.00000 -0.12485
       4     C     3.05159  3.05159  0.00000 -0.10317
       5     C     3.06241  3.06241  0.00000 -0.12482
       6     C     3.08351  3.08351  0.00000 -0.16703
       7     C     2.72339  2.72339  0.00000  0.55322
       8     H     0.41413  0.41413  0.00000  0.17174
       9     H     0.40539  0.40539  0.00000  0.18923
      10     H     0.40391  0.40391  0.00000  0.19219
      11     H     0.40546  0.40546  0.00000  0.18909
      12     H     0.41542  0.41542  0.00000  0.16917
      13     N     3.86142  3.86142  0.00000 -0.72284
      14     N     3.86390  3.86390  0.00000 -0.72779
      15     H     0.30554  0.30554  0.00000  0.38892
      16     H     0.29955  0.29955  0.00000  0.40091
      17     H     0.29964  0.29964  0.00000  0.40073
      18     H     0.30585  0.30585  0.00000  0.38831

   Total alpha = 32.00000, Total beta = 32.00000, Total charge =  1.00000

*** Psi4 exiting successfully. Buy a developer a beer!
