                               Psi4 1.1 release

  ==> Input File <==

--------------------------------------------------------------------------
set_num_threads(1)
set_memory(4203741184)

set { reference rks }
set { basis cc-pVDZ }

molecule MOL {
    0 1
    noreorient
    nocom
    symmetry c1
    O    1.141000   0.017000   0.083000
    C    2.558000   0.086000  -0.005000
    C    3.192000  -0.789000   1.067000
    O    4.610000  -0.719000   0.979000
    H    0.835960  -0.474987  -0.698883
    H    2.874000   1.128000   0.115000
    H    2.871000  -0.243000  -1.001000
    H    2.876000  -1.830000   0.947000
    H    2.879000  -0.459000   2.064000
    H    4.961000  -1.293000   1.682000
}

set optking { frozen_dihedral = (" 3 2 1 5 ") }

energy, wfn = energy('B3LYP-D3', return_wfn=True)

import os
os.chdir(os.environ['HTMD_PSI4_WORKDIR'])

oeprop(wfn, 'DIPOLE', 'QUADRUPOLE', 'MULLIKEN_CHARGES')

with open('psi4out.xyz', 'w') as f:
    f.write('10 ' )
    f.write('%.12f\n' % energy)
    f.write(MOL.save_string_xyz())
--------------------------------------------------------------------------

    Molecular point group: c1

    Geometry (in Angstrom), charge = 0, multiplicity = 1:

       Center              X                  Y                   Z               Mass
    ------------   -----------------  -----------------  -----------------  -----------------
           O          1.141000000000     0.017000000000     0.083000000000    15.994914619560
           C          2.558000000000     0.086000000000    -0.005000000000    12.000000000000
           C          3.192000000000    -0.789000000000     1.067000000000    12.000000000000
           O          4.610000000000    -0.719000000000     0.979000000000    15.994914619560
           H          0.835960000000    -0.474987000000    -0.698883000000     1.007825032070
           H          2.874000000000     1.128000000000     0.115000000000     1.007825032070
           H          2.871000000000    -0.243000000000    -1.001000000000     1.007825032070
           H          2.876000000000    -1.830000000000     0.947000000000     1.007825032070
           H          2.879000000000    -0.459000000000     2.064000000000     1.007825032070
           H          4.961000000000    -1.293000000000     1.682000000000     1.007825032070

  Charge       = 0
  Multiplicity = 1
  Basis Set: CC-PVDZ
    Blend: CC-PVDZ
   => B3LYP Composite Functional <=
  Basis Set: (CC-PVDZ AUX)
    Blend: CC-PVDZ-JKFIT

    Orbital Energies (a.u.)
    -----------------------

    Doubly Occupied:

       1A    -19.133973     2A    -19.130587     3A    -10.226860
       4A    -10.223729     5A     -1.019925     6A     -1.008797
       7A     -0.730813     8A     -0.607994     9A     -0.524901
      10A     -0.492483    11A     -0.454633    12A     -0.423254
      13A     -0.396390    14A     -0.338778    15A     -0.324503
      16A     -0.268988    17A     -0.263534

  @DF-RKS Final Energy:  -230.25724985853014

   => Energetics <=

    Nuclear Repulsion Energy =            129.6104903333660445
    One-Electron Energy =                -570.9622004287609798
    Two-Electron Energy =                 235.6379749826963064
    DFT Exchange-Correlation Energy =     -24.5390331858315243
    Empirical Dispersion Energy =          -0.0044815600000000
    PCM Polarization Energy =               0.0000000000000000
    EFP Energy =                            0.0000000000000000
    Total Energy =                       -230.2572498585301446

  Mulliken Charges: (a.u.)
   Center  Symbol    Alpha    Beta     Spin     Total
       1     O     4.13963  4.13963  0.00000 -0.27926
       2     C     2.93675  2.93675  0.00000  0.12649
       3     C     2.93593  2.93593  0.00000  0.12815
       4     O     4.14126  4.14126  0.00000 -0.28252
       5     H     0.42790  0.42790  0.00000  0.14421
       6     H     0.49009  0.49009  0.00000  0.01981
       7     H     0.49735  0.49735  0.00000  0.00530
       8     H     0.50527  0.50527  0.00000 -0.01054
       9     H     0.49780  0.49780  0.00000  0.00441
      10     H     0.42803  0.42803  0.00000  0.14395

   Total alpha = 17.00000, Total beta = 17.00000, Total charge = -0.00000

*** Psi4 exiting successfully. Buy a developer a beer!
