                               Psi4 1.1 release

  ==> Input File <==

--------------------------------------------------------------------------
set_num_threads( 8 )
memory 2.000000 gb

set { reference rks }
set { basis cc-pVDZ }

molecule MOL {
    0 1
    noreorient
    nocom
    symmetry c1
    O    1.141000   0.017000   0.083000
    C    2.558000   0.086000  -0.005000
    C    3.192000  -0.789000   1.067000
    O    4.610000  -0.719000   0.979000
    H    0.789000   0.590000  -0.620000
    H    2.874000   1.128000   0.115000
    H    2.871000  -0.243000  -1.001000
    H    2.876000  -1.830000   0.947000
    H    2.879000  -0.459000   2.064000
    H    4.888208   0.017203   1.551268
}

set optking { frozen_dihedral = (" 1 2 3 4, 2 3 4 10 ") }

energy, wfn = energy('B3LYP-D3', return_wfn=True)

import os
os.chdir(os.environ['HTMD_PSI4_WORKDIR'])

oeprop(wfn, 'DIPOLE', 'QUADRUPOLE', 'MULLIKEN_CHARGES')

with open('psi4out.xyz', 'w') as f:
    f.write('10 ' )
    f.write('%.12f\n' % energy)
    f.write(MOL.save_string_xyz())
--------------------------------------------------------------------------

    Molecular point group: c1

    Geometry (in Angstrom), charge = 0, multiplicity = 1:

       Center              X                  Y                   Z               Mass
    ------------   -----------------  -----------------  -----------------  -----------------
           O          1.141000000000     0.017000000000     0.083000000000    15.994914619560
           C          2.558000000000     0.086000000000    -0.005000000000    12.000000000000
           C          3.192000000000    -0.789000000000     1.067000000000    12.000000000000
           O          4.610000000000    -0.719000000000     0.979000000000    15.994914619560
           H          0.789000000000     0.590000000000    -0.620000000000     1.007825032070
           H          2.874000000000     1.128000000000     0.115000000000     1.007825032070
           H          2.871000000000    -0.243000000000    -1.001000000000     1.007825032070
           H          2.876000000000    -1.830000000000     0.947000000000     1.007825032070
           H          2.879000000000    -0.459000000000     2.064000000000     1.007825032070
           H          4.888208000000     0.017203000000     1.551268000000     1.007825032070

  Charge       = 0
  Multiplicity = 1
  Basis Set: CC-PVDZ
    Blend: CC-PVDZ
   => B3LYP Composite Functional <=
  Basis Set: (CC-PVDZ AUX)
    Blend: CC-PVDZ-JKFIT

    Orbital Energies (a.u.)
    -----------------------

    Doubly Occupied:

       1A    -19.134966     2A    -19.131390     3A    -10.227224
       4A    -10.224687     5A     -1.020756     6A     -1.009599
       7A     -0.730869     8A     -0.611408     9A     -0.522770
      10A     -0.494464    11A     -0.451745    12A     -0.428067
      13A     -0.397207    14A     -0.338347    15A     -0.326004
      16A     -0.270042    17A     -0.264635

  @DF-RKS Final Energy:  -230.25818150771860

   => Energetics <=

    Nuclear Repulsion Energy =            129.7147987347072160
    One-Electron Energy =                -571.1447496205828429
    Two-Electron Energy =                 235.7149262495458686
    DFT Exchange-Correlation Energy =     -24.5385867113888381
    Empirical Dispersion Energy =          -0.0045701600000000
    PCM Polarization Energy =               0.0000000000000000
    EFP Energy =                            0.0000000000000000
    Total Energy =                       -230.2581815077186036

  Mulliken Charges: (a.u.)
   Center  Symbol    Alpha    Beta     Spin     Total
       1     O     4.14073  4.14073  0.00000 -0.28147
       2     C     2.93832  2.93832  0.00000  0.12336
       3     C     2.93399  2.93399  0.00000  0.13202
       4     O     4.13960  4.13960  0.00000 -0.27921
       5     H     0.42819  0.42819  0.00000  0.14362
       6     H     0.50747  0.50747  0.00000 -0.01494
       7     H     0.49809  0.49809  0.00000  0.00382
       8     H     0.48735  0.48735  0.00000  0.02531
       9     H     0.49704  0.49704  0.00000  0.00592
      10     H     0.42922  0.42922  0.00000  0.14157

   Total alpha = 17.00000, Total beta = 17.00000, Total charge = -0.00000

*** Psi4 exiting successfully. Buy a developer a beer!
