                               Psi4 1.1 release

  ==> Input File <==

--------------------------------------------------------------------------
set {
	reference rks
	basis 6-31G*
}

set_num_threads( 8 )
memory 2 gb

molecule MOL {
1 1

C	 -0.557230	 0.634074	 -0.458862
C	 -0.288337	 1.989643	 -0.192042
C	 -0.823507	 2.586767	 0.944953
C	 -1.616316	 1.839211	 1.821218
C	 -1.881352	 0.491102	 1.561254
C	 -1.359493	 -0.114572	 0.422595
C	 -0.000000	 -0.000000	 -1.658508
H	 0.291292	 2.585169	 -0.891767
H	 -0.631377	 3.636290	 1.142742
H	 -2.028729	 2.308498	 2.709092
H	 -2.485604	 -0.089467	 2.250713
H	 -1.532640	 -1.172636	 0.247216
N	 -0.712589	 -0.905950	 -2.322235
N	 1.216859	 0.332140	 -2.080409
H	 1.608863	 -0.006640	 -2.951229
H	 1.818751	 0.893059	 -1.491869
H	 -1.377189	 -1.485970	 -1.827091
H	 -0.673431	 -1.006470	 -3.329771

	symmetry c1
}
set optking { dynamic_level = 1 }
set optking {
	frozen_dihedral = ("
		1 7 13 17
	")
}

ee,wfn = optimize('b3lyp-d3', return_wfn=True)
oeprop( wfn, 'DIPOLE', 'QUADRUPOLE', 'MULLIKEN_CHARGES')
f=open( 'psi4out.xyz', 'w' )
f.write( "18  " )
f.write( str(ee) + "\n" )
f.write( MOL.save_string_xyz() )
f.close()
--------------------------------------------------------------------------

    Molecular point group: c1
  Charge       = 1
  Multiplicity = 1
  Basis Set: 6-31G*
    Blend: 6-31G*
   => B3LYP Composite Functional <=
  Basis Set: (6-31G* AUX)
    Blend: CC-PVDZ-JKFIT
  @DF-RKS Final Energy:  -381.45496950241846
    Total Energy =                       -381.4549695024184643
    Molecular point group: c1
  Basis Set: 6-31G*
    Blend: 6-31G*
  Basis Set: (6-31G* AUX)
    Blend: CC-PVDZ-JKFIT
   => B3LYP Composite Functional <=
  Basis Set: 6-31G*
    Blend: 6-31G*
   => B3LYP Composite Functional <=
  Basis Set: (6-31G* AUX)
    Blend: CC-PVDZ-JKFIT
  @DF-RKS Final Energy:  -381.46055682898998
    Total Energy =                       -381.4605568289899225
  Basis Set: 6-31G*
    Blend: 6-31G*
  Basis Set: (6-31G* AUX)
  @DF-RKS Final Energy:  -381.46256968394499
    Total Energy =                       -381.4625696839449915
  @DF-RKS Final Energy:  -381.46459139115819
    Total Energy =                       -381.4645913911581943
  @DF-RKS Final Energy:  -381.46487368017137
    Total Energy =                       -381.4648736801713653
   => B3LYP Composite Functional <=
  Basis Set: (6-31G* AUX)
    Blend: CC-PVDZ-JKFIT
  @DF-RKS Final Energy:  -381.46491039522652
    Total Energy =                       -381.4649103952265250
  Basis Set: 6-31G*
    Blend: 6-31G*
  Basis Set: (6-31G* AUX)
    Blend: CC-PVDZ-JKFIT
   => B3LYP Composite Functional <=
  Charge       = 1
  Multiplicity = 1
  Basis Set: 6-31G*
    Blend: 6-31G*
   => B3LYP Composite Functional <=
  Basis Set: (6-31G* AUX)
    Blend: CC-PVDZ-JKFIT

    Orbital Energies (a.u.)
    -----------------------

    Doubly Occupied:

       1A    -14.572619     2A    -14.566893     3A    -10.500104
       4A    -10.375320     5A    -10.358097     6A    -10.357393
       7A    -10.343083     8A    -10.341284     9A    -10.341027
      10A     -1.186256    11A     -1.094008    12A     -1.015468
      13A     -0.927751    14A     -0.903371    15A     -0.846516
      16A     -0.786077    17A     -0.773389    18A     -0.742625
      19A     -0.733286    20A     -0.685499    21A     -0.669255
      22A     -0.626924    23A     -0.620011    24A     -0.588871
      25A     -0.579544    26A     -0.575508    27A     -0.518632
      28A     -0.506879    29A     -0.499334    30A     -0.475414
      31A     -0.411501    32A     -0.406375

  @DF-RKS Final Energy:  -381.46491447532350

   => Energetics <=

    Nuclear Repulsion Energy =            416.6949169989730422
    One-Electron Energy =               -1328.5176674132528660
    Two-Electron Energy =                 574.7719969708344934
    DFT Exchange-Correlation Energy =     -44.4023227718780475
    Empirical Dispersion Energy =          -0.0118382600000000
    PCM Polarization Energy =               0.0000000000000000
    EFP Energy =                            0.0000000000000000
    Total Energy =                       -381.4649144753234395
    Molecular point group: c1
  Basis Set: 6-31G*
    Blend: 6-31G*
  Basis Set: (6-31G* AUX)
    Blend: CC-PVDZ-JKFIT
   => B3LYP Composite Functional <=

  -Total Gradient:
     Atom            X                  Y                   Z
    ------   -----------------  -----------------  -----------------
       1       -0.001905792392     0.005327357566    -0.003853921770
       2       -0.000022964002    -0.000073543938     0.000103026551
       3        0.000033759871     0.000024219926    -0.000041605404
       4       -0.000002312871    -0.000021818266     0.000030577628
       5        0.000000274722    -0.000015856303     0.000015056401
       6       -0.000035352273     0.000024061096    -0.000009084954
       7        0.005360007538    -0.010762934376     0.006416209690
       8       -0.000029579459     0.000042610866    -0.000004340241
       9       -0.000000622192     0.000004152202    -0.000008936140
      10       -0.000008026813    -0.000000743049    -0.000007082393
      11       -0.000003438396    -0.000002894360    -0.000006824068
      12       -0.000016536378     0.000006477659     0.000042154891
      13       -0.009390394819     0.012715043669    -0.004128068383
      14       -0.000029493918     0.000043804749    -0.000026471101
      15       -0.000008447397     0.000005731404     0.000012602018
      16        0.000003595171    -0.000064185110    -0.000033100921
      17        0.006106743346    -0.007288031574     0.001459067381
      18       -0.000052106308     0.000017056847     0.000025761697

  **** Optimization is complete! (in 7 steps) ****
    Final optimized geometry and variables:
    Molecular point group: c1

    Geometry (in Angstrom), charge = 1, multiplicity = 1:

    C            0.083301935664    -0.100808736484    -0.142291337487
    C            0.361903764480     1.251802138365     0.127459844566
    C           -0.172842005794     1.852267066187     1.263380701339
    C           -0.968339708328     1.110402842121     2.141069617528
    C           -1.239875093736    -0.236217336751     1.881061025253
    C           -0.721989654064    -0.842397212470     0.741258299260
    C            0.627675828353    -0.731814227971    -1.352682668177
    H            0.940506721315     1.849250710658    -0.571316490227
    H            0.023584802933     2.901568313336     1.458187870862
    H           -1.379186829868     1.582573673564     3.028049909926
    H           -1.848080605846    -0.814108078683     2.569206188068
    H           -0.908815633416    -1.899915339593     0.571661360397
    N           -0.145643476682    -1.533615688512    -2.094884184261
    N            1.826216830138    -0.373815806573    -1.797832927885
    H            2.205440409256    -0.693823337616    -2.681699968136
    H            2.412074384065     0.235059710796    -1.241560609431
    H           -0.881083543170    -2.058094075852    -1.635108862408
    H            0.257911532121    -2.024209273815    -2.887601168463

  Mulliken Charges: (a.u.)
   Center  Symbol    Alpha    Beta     Spin     Total
       1     C     2.94271  2.94271  0.00000  0.11458
       2     C     3.08240  3.08240  0.00000 -0.16480
       3     C     3.06214  3.06214  0.00000 -0.12428
       4     C     3.05162  3.05162  0.00000 -0.10325
       5     C     3.06232  3.06232  0.00000 -0.12464
       6     C     3.08472  3.08472  0.00000 -0.16944
       7     C     2.74188  2.74188  0.00000  0.51625
       8     H     0.41494  0.41494  0.00000  0.17013
       9     H     0.40522  0.40522  0.00000  0.18956
      10     H     0.40375  0.40375  0.00000  0.19249
      11     H     0.40533  0.40533  0.00000  0.18934
      12     H     0.41838  0.41838  0.00000  0.16324
      13     N     3.84890  3.84890  0.00000 -0.69779
      14     N     3.86023  3.86023  0.00000 -0.72047
      15     H     0.30461  0.30461  0.00000  0.39079
      16     H     0.29871  0.29871  0.00000  0.40258
      17     H     0.30181  0.30181  0.00000  0.39638
      18     H     0.31034  0.31034  0.00000  0.37933

   Total alpha = 32.00000, Total beta = 32.00000, Total charge =  1.00000

*** Psi4 exiting successfully. Buy a developer a beer!
