                               Psi4 1.1 release

  ==> Input File <==

--------------------------------------------------------------------------
set_num_threads(1)
set_memory(4203741184)

set { reference rks }
set { basis cc-pVDZ }

molecule MOL {
    0 1
    noreorient
    nocom
    symmetry c1
    O    1.050400   0.042900  -0.048100
    C    2.474100   0.047400  -0.029000
    C    3.002600  -1.068900  -0.932000
    N    4.390991  -0.844005  -1.331114
    H    0.760400   0.728400   0.578000
    H    2.809900  -0.097900   1.003200
    H    2.817400   1.026800  -0.378600
    H    2.370877  -1.155551  -1.823716
    H    2.924182  -2.027339  -0.406356
    H    4.442238  -0.014760  -1.922053
    H    4.694355  -1.622464  -1.916112
}

set optking { frozen_dihedral = (" 1 2 3 4 ") }

energy, wfn = energy('B3LYP-D3', return_wfn=True)

import os
os.chdir(os.environ['HTMD_PSI4_WORKDIR'])

oeprop(wfn, 'DIPOLE', 'QUADRUPOLE', 'MULLIKEN_CHARGES')

with open('psi4out.xyz', 'w') as f:
    f.write('11 ' )
    f.write('%.12f\n' % energy)
    f.write(MOL.save_string_xyz())
--------------------------------------------------------------------------

    Molecular point group: c1

    Geometry (in Angstrom), charge = 0, multiplicity = 1:

       Center              X                  Y                   Z               Mass
    ------------   -----------------  -----------------  -----------------  -----------------
           O          1.050400000000     0.042900000000    -0.048100000000    15.994914619560
           C          2.474100000000     0.047400000000    -0.029000000000    12.000000000000
           C          3.002600000000    -1.068900000000    -0.932000000000    12.000000000000
           N          4.390991000000    -0.844005000000    -1.331114000000    14.003074004780
           H          0.760400000000     0.728400000000     0.578000000000     1.007825032070
           H          2.809900000000    -0.097900000000     1.003200000000     1.007825032070
           H          2.817400000000     1.026800000000    -0.378600000000     1.007825032070
           H          2.370877000000    -1.155551000000    -1.823716000000     1.007825032070
           H          2.924182000000    -2.027339000000    -0.406356000000     1.007825032070
           H          4.442238000000    -0.014760000000    -1.922053000000     1.007825032070
           H          4.694355000000    -1.622464000000    -1.916112000000     1.007825032070

  Charge       = 0
  Multiplicity = 1
  Basis Set: CC-PVDZ
    Blend: CC-PVDZ
   => B3LYP Composite Functional <=
  Basis Set: (CC-PVDZ AUX)
    Blend: CC-PVDZ-JKFIT

    Orbital Energies (a.u.)
    -----------------------

    Doubly Occupied:

       1A    -19.127022     2A    -14.304054     3A    -10.223967
       4A    -10.201458     5A     -1.009501     6A     -0.876120
       7A     -0.712193     8A     -0.596926     9A     -0.506633
      10A     -0.487941    11A     -0.446854    12A     -0.420280
      13A     -0.388346    14A     -0.363013    15A     -0.323729
      16A     -0.260516    17A     -0.230138

  @DF-RKS Final Energy:  -210.39011632506643

   => Energetics <=

    Nuclear Repulsion Energy =            130.5103795431882077
    One-Electron Energy =                -543.9608961974090562
    Two-Electron Energy =                 226.5527564370886751
    DFT Exchange-Correlation Energy =     -23.4874987679342553
    Empirical Dispersion Energy =          -0.0048573400000000
    PCM Polarization Energy =               0.0000000000000000
    EFP Energy =                            0.0000000000000000
    Total Energy =                       -210.3901163250664297

  Mulliken Charges: (a.u.)
   Center  Symbol    Alpha    Beta     Spin     Total
       1     O     4.13990  4.13990  0.00000 -0.27979
       2     C     2.92834  2.92834  0.00000  0.14332
       3     C     2.98423  2.98423  0.00000  0.03154
       4     N     3.59500  3.59500  0.00000 -0.19000
       5     H     0.43013  0.43013  0.00000  0.13974
       6     H     0.49789  0.49789  0.00000  0.00422
       7     H     0.50466  0.50466  0.00000 -0.00933
       8     H     0.49979  0.49979  0.00000  0.00042
       9     H     0.49082  0.49082  0.00000  0.01837
      10     H     0.46542  0.46542  0.00000  0.06915
      11     H     0.46382  0.46382  0.00000  0.07235

   Total alpha = 17.00000, Total beta = 17.00000, Total charge =  0.00000

*** Psi4 exiting successfully. Buy a developer a beer!
