                               Psi4 1.1 release

  ==> Input File <==

--------------------------------------------------------------------------
set_num_threads(1)
set_memory(4203741184)

set { reference rks }
set { basis cc-pVDZ }

molecule MOL {
    0 1
    noreorient
    nocom
    symmetry c1
    O    1.141000   0.017000   0.083000
    C    2.558000   0.086000  -0.005000
    C    3.192000  -0.789000   1.067000
    O    2.254778  -1.044760   2.106024
    H    0.789000   0.590000  -0.620000
    H    2.874000   1.128000   0.115000
    H    2.871000  -0.243000  -1.001000
    H    4.072458  -0.296305   1.491243
    H    3.518873  -1.742796   0.637693
    H    2.709734  -1.604058   2.759543
}

set optking { frozen_dihedral = (" 1 2 3 4 ") }

energy, wfn = energy('B3LYP-D3', return_wfn=True)

import os
os.chdir(os.environ['HTMD_PSI4_WORKDIR'])

oeprop(wfn, 'DIPOLE', 'QUADRUPOLE', 'MULLIKEN_CHARGES')

with open('psi4out.xyz', 'w') as f:
    f.write('10 ' )
    f.write('%.12f\n' % energy)
    f.write(MOL.save_string_xyz())
--------------------------------------------------------------------------

    Molecular point group: c1

    Geometry (in Angstrom), charge = 0, multiplicity = 1:

       Center              X                  Y                   Z               Mass
    ------------   -----------------  -----------------  -----------------  -----------------
           O          1.141000000000     0.017000000000     0.083000000000    15.994914619560
           C          2.558000000000     0.086000000000    -0.005000000000    12.000000000000
           C          3.192000000000    -0.789000000000     1.067000000000    12.000000000000
           O          2.254778000000    -1.044760000000     2.106024000000    15.994914619560
           H          0.789000000000     0.590000000000    -0.620000000000     1.007825032070
           H          2.874000000000     1.128000000000     0.115000000000     1.007825032070
           H          2.871000000000    -0.243000000000    -1.001000000000     1.007825032070
           H          4.072458000000    -0.296305000000     1.491243000000     1.007825032070
           H          3.518873000000    -1.742796000000     0.637693000000     1.007825032070
           H          2.709734000000    -1.604058000000     2.759543000000     1.007825032070

  Charge       = 0
  Multiplicity = 1
  Basis Set: CC-PVDZ
    Blend: CC-PVDZ
   => B3LYP Composite Functional <=
  Basis Set: (CC-PVDZ AUX)
    Blend: CC-PVDZ-JKFIT

    Orbital Energies (a.u.)
    -----------------------

    Doubly Occupied:

       1A    -19.122465     2A    -19.122410     3A    -10.226060
       4A    -10.225874     5A     -1.016432     6A     -0.994355
       7A     -0.733992     8A     -0.599537     9A     -0.526488
      10A     -0.481808    11A     -0.456496    12A     -0.413641
      13A     -0.394608    14A     -0.328549    15A     -0.322960
      16A     -0.266124    17A     -0.245324

  @DF-RKS Final Energy:  -230.24626430776743

   => Energetics <=

    Nuclear Repulsion Energy =            133.0789827153239173
    One-Electron Energy =                -578.0635894524446030
    Two-Electron Energy =                 239.2822331949707007
    DFT Exchange-Correlation Energy =     -24.5398590456174723
    Empirical Dispersion Energy =          -0.0040317200000000
    PCM Polarization Energy =               0.0000000000000000
    EFP Energy =                            0.0000000000000000
    Total Energy =                       -230.2462643077674329

  Mulliken Charges: (a.u.)
   Center  Symbol    Alpha    Beta     Spin     Total
       1     O     4.12938  4.12938  0.00000 -0.25875
       2     C     2.93506  2.93506  0.00000  0.12988
       3     C     2.93517  2.93517  0.00000  0.12967
       4     O     4.12961  4.12961  0.00000 -0.25923
       5     H     0.43160  0.43160  0.00000  0.13681
       6     H     0.50140  0.50140  0.00000 -0.00280
       7     H     0.50254  0.50254  0.00000 -0.00509
       8     H     0.50242  0.50242  0.00000 -0.00485
       9     H     0.50128  0.50128  0.00000 -0.00256
      10     H     0.43154  0.43154  0.00000  0.13691

   Total alpha = 17.00000, Total beta = 17.00000, Total charge =  0.00000

*** Psi4 exiting successfully. Buy a developer a beer!
