                               Psi4 1.1 release

  ==> Input File <==

--------------------------------------------------------------------------
set_num_threads(1)
set_memory(4203741184)

set { reference rks }
set { basis cc-pVDZ }

molecule MOL {
    0 1
    noreorient
    nocom
    symmetry c1
    O    1.141000   0.017000   0.083000
    C    2.558000   0.086000  -0.005000
    C    3.192000  -0.789000   1.067000
    O    2.616183  -0.501679   2.335562
    H    0.789000   0.590000  -0.620000
    H    2.874000   1.128000   0.115000
    H    2.871000  -0.243000  -1.001000
    H    4.271276  -0.613453   1.114793
    H    3.037130  -1.848958   0.835952
    H    3.055278  -1.084957   2.978889
}

set optking { frozen_dihedral = (" 1 2 3 4 ") }

energy, wfn = energy('B3LYP-D3', return_wfn=True)

import os
os.chdir(os.environ['HTMD_PSI4_WORKDIR'])

oeprop(wfn, 'DIPOLE', 'QUADRUPOLE', 'MULLIKEN_CHARGES')

with open('psi4out.xyz', 'w') as f:
    f.write('10 ' )
    f.write('%.12f\n' % energy)
    f.write(MOL.save_string_xyz())
--------------------------------------------------------------------------

    Molecular point group: c1

    Geometry (in Angstrom), charge = 0, multiplicity = 1:

       Center              X                  Y                   Z               Mass
    ------------   -----------------  -----------------  -----------------  -----------------
           O          1.141000000000     0.017000000000     0.083000000000    15.994914619560
           C          2.558000000000     0.086000000000    -0.005000000000    12.000000000000
           C          3.192000000000    -0.789000000000     1.067000000000    12.000000000000
           O          2.616183000000    -0.501679000000     2.335562000000    15.994914619560
           H          0.789000000000     0.590000000000    -0.620000000000     1.007825032070
           H          2.874000000000     1.128000000000     0.115000000000     1.007825032070
           H          2.871000000000    -0.243000000000    -1.001000000000     1.007825032070
           H          4.271276000000    -0.613453000000     1.114793000000     1.007825032070
           H          3.037130000000    -1.848958000000     0.835952000000     1.007825032070
           H          3.055278000000    -1.084957000000     2.978889000000     1.007825032070

  Charge       = 0
  Multiplicity = 1
  Basis Set: CC-PVDZ
    Blend: CC-PVDZ
   => B3LYP Composite Functional <=
  Basis Set: (CC-PVDZ AUX)
    Blend: CC-PVDZ-JKFIT

    Orbital Energies (a.u.)
    -----------------------

    Doubly Occupied:

       1A    -19.124192     2A    -19.124160     3A    -10.227315
       4A    -10.227126     5A     -1.016436     6A     -0.997673
       7A     -0.733943     8A     -0.601432     9A     -0.522194
      10A     -0.496071    11A     -0.443885    12A     -0.414988
      13A     -0.401281    14A     -0.337956    15A     -0.319210
      16A     -0.259049    17A     -0.257520

  @DF-RKS Final Energy:  -230.25406411908540

   => Energetics <=

    Nuclear Repulsion Energy =            132.1844868276959630
    One-Electron Energy =                -576.2375500346335002
    Two-Electron Energy =                 238.3394973807986332
    DFT Exchange-Correlation Energy =     -24.5362274529465196
    Empirical Dispersion Energy =          -0.0042708400000000
    PCM Polarization Energy =               0.0000000000000000
    EFP Energy =                            0.0000000000000000
    Total Energy =                       -230.2540641190853989

  Mulliken Charges: (a.u.)
   Center  Symbol    Alpha    Beta     Spin     Total
       1     O     4.13324  4.13324  0.00000 -0.26648
       2     C     2.93337  2.93337  0.00000  0.13327
       3     C     2.93348  2.93348  0.00000  0.13304
       4     O     4.13349  4.13349  0.00000 -0.26697
       5     H     0.43064  0.43064  0.00000  0.13871
       6     H     0.49937  0.49937  0.00000  0.00126
       7     H     0.50333  0.50333  0.00000 -0.00667
       8     H     0.50322  0.50322  0.00000 -0.00643
       9     H     0.49927  0.49927  0.00000  0.00146
      10     H     0.43059  0.43059  0.00000  0.13882

   Total alpha = 17.00000, Total beta = 17.00000, Total charge = -0.00000

*** Psi4 exiting successfully. Buy a developer a beer!
