                               Psi4 1.1 release

  ==> Input File <==

--------------------------------------------------------------------------
set {
	reference rks
	basis 6-31G*
}

set_num_threads( 8 )
memory 2 gb

molecule MOL {
1 1

C	 -0.000000	 -0.000000	 -0.191639
C	 -1.036664	 -0.643075	 0.510391
C	 -1.028737	 -0.643716	 1.901670
C	 -0.000000	 0.000000	 2.596333
C	 1.028737	 0.643716	 1.901670
C	 1.036665	 0.643075	 0.510391
C	 -0.000000	 -0.000000	 -1.658508
H	 -1.814415	 -1.180753	 -0.024627
H	 -1.817957	 -1.154030	 2.444112
H	 -0.000000	 0.000000	 3.681982
H	 1.817957	 1.154031	 2.444112
H	 1.814415	 1.180753	 -0.024627
N	 -0.712589	 -0.905950	 -2.322235
N	 0.712590	 0.905950	 -2.322235
H	 0.673432	 1.006470	 -3.329771
H	 1.377190	 1.485970	 -1.827091
H	 -1.377189	 -1.485970	 -1.827091
H	 -0.673431	 -1.006470	 -3.329771

	symmetry c1
}
set optking { dynamic_level = 1 }
set optking {
	frozen_dihedral = ("
		2 1 7 13
	")
}

ee,wfn = optimize('b3lyp-d3', return_wfn=True)
oeprop( wfn, 'DIPOLE', 'QUADRUPOLE', 'MULLIKEN_CHARGES')
f=open( 'psi4out.xyz', 'w' )
f.write( "18  " )
f.write( str(ee) + "\n" )
f.write( MOL.save_string_xyz() )
f.close()
--------------------------------------------------------------------------

    Molecular point group: c1
  Charge       = 1
  Multiplicity = 1
  Basis Set: 6-31G*
    Blend: 6-31G*
   => B3LYP Composite Functional <=
  Basis Set: (6-31G* AUX)
    Blend: CC-PVDZ-JKFIT
  @DF-RKS Final Energy:  -381.46358806707553
    Total Energy =                       -381.4635880670755910
    Molecular point group: c1
  Basis Set: 6-31G*
    Blend: 6-31G*
  Basis Set: (6-31G* AUX)
    Blend: CC-PVDZ-JKFIT
   => B3LYP Composite Functional <=
  Basis Set: 6-31G*
    Blend: 6-31G*
   => B3LYP Composite Functional <=
  Basis Set: (6-31G* AUX)
    Blend: CC-PVDZ-JKFIT
  @DF-RKS Final Energy:  -381.46667114965061
    Total Energy =                       -381.4666711496506650
  Basis Set: 6-31G*
    Blend: 6-31G*
  Basis Set: (6-31G* AUX)
  @DF-RKS Final Energy:  -381.46838652926129
    Total Energy =                       -381.4683865292613518
  @DF-RKS Final Energy:  -381.46667114915465
    Total Energy =                       -381.4666711491545925
  @DF-RKS Final Energy:  -381.46808515966512
    Total Energy =                       -381.4680851596650655
  @DF-RKS Final Energy:  -381.46884659187077
    Total Energy =                       -381.4688465918707720
  @DF-RKS Final Energy:  -381.46921029622570
    Total Energy =                       -381.4692102962257536
  @DF-RKS Final Energy:  -381.46926910316785
    Total Energy =                       -381.4692691031677896
  @DF-RKS Final Energy:  -381.46927873737712
    Total Energy =                       -381.4692787373771239
  @DF-RKS Final Energy:  -381.46928110193005
    Total Energy =                       -381.4692811019300507
  @DF-RKS Final Energy:  -381.46890472474576
    Total Energy =                       -381.4689047247457552
   => B3LYP Composite Functional <=
  Basis Set: (6-31G* AUX)
    Blend: CC-PVDZ-JKFIT
  @DF-RKS Final Energy:  -381.46918704368358
    Total Energy =                       -381.4691870436835757
  Basis Set: 6-31G*
    Blend: 6-31G*
  Basis Set: (6-31G* AUX)
    Blend: CC-PVDZ-JKFIT
   => B3LYP Composite Functional <=
  Charge       = 1
  Multiplicity = 1
  Basis Set: 6-31G*
    Blend: 6-31G*
   => B3LYP Composite Functional <=
  Basis Set: (6-31G* AUX)
    Blend: CC-PVDZ-JKFIT

    Orbital Energies (a.u.)
    -----------------------

    Doubly Occupied:

       1A    -14.566329     2A    -14.566178     3A    -10.497088
       4A    -10.375225     5A    -10.358655     6A    -10.358287
       7A    -10.345309     8A    -10.341970     9A    -10.341915
      10A     -1.182992    11A     -1.090106    12A     -1.015776
      13A     -0.927867    14A     -0.904133    15A     -0.846435
      16A     -0.785678    17A     -0.775196    18A     -0.737892
      19A     -0.735540    20A     -0.688699    21A     -0.669285
      22A     -0.628750    23A     -0.613736    24A     -0.592648
      25A     -0.580780    26A     -0.574796    27A     -0.518416
      28A     -0.507879    29A     -0.499707    30A     -0.471865
      31A     -0.413028    32A     -0.407235

  @DF-RKS Final Energy:  -381.46928110110889

   => Energetics <=

    Nuclear Repulsion Energy =            416.8475016639168302
    One-Electron Energy =               -1328.8468050078456599
    Two-Electron Energy =                 574.9483219765248805
    DFT Exchange-Correlation Energy =     -44.4065726037048165
    Empirical Dispersion Energy =          -0.0117271300000000
    PCM Polarization Energy =               0.0000000000000000
    EFP Energy =                            0.0000000000000000
    Total Energy =                       -381.4692811011088338
    Molecular point group: c1
  Basis Set: 6-31G*
    Blend: 6-31G*
  Basis Set: (6-31G* AUX)
    Blend: CC-PVDZ-JKFIT
   => B3LYP Composite Functional <=

  -Total Gradient:
     Atom            X                  Y                   Z
    ------   -----------------  -----------------  -----------------
       1       -0.004173217931     0.005597467947    -0.000153215176
       2        0.001879581651    -0.003028695572     0.000091814905
       3        0.000003067447    -0.000006396374     0.000013853262
       4       -0.000003187244    -0.000005333759    -0.000005439640
       5       -0.000000013969    -0.000003220629     0.000004849128
       6       -0.000002783445     0.000010540062    -0.000025581145
       7        0.005311819731    -0.004974591990     0.000159536813
       8       -0.000005517327     0.000001983819     0.000005271527
       9       -0.000001174242    -0.000003243034    -0.000002070294
      10       -0.000002512302     0.000001346999    -0.000000305782
      11        0.000001976714    -0.000000212933    -0.000003232205
      12       -0.000007340285     0.000017011687    -0.000001077802
      13       -0.002989917352     0.002263664311    -0.000056145392
      14       -0.000013953754     0.000113684791     0.000038507276
      15        0.000018648339    -0.000029478929     0.000004946814
      16       -0.000017690445    -0.000063221016    -0.000039228111
      17        0.000015497559     0.000073501538    -0.000042713107
      18       -0.000013664427     0.000034792191    -0.000005859165

  **** Optimization is complete! (in 1 steps) ****
    Final optimized geometry and variables:
    Molecular point group: c1

    Geometry (in Angstrom), charge = 1, multiplicity = 1:

    C           -0.015115849526     0.025853598843    -0.192573329209
    C           -1.061050237620    -0.597535530585     0.516285581043
    C           -1.050965831231    -0.605595652736     1.906523340314
    C            0.004016011196    -0.008324143870     2.603201548795
    C            1.055086225152     0.596213013113     1.907602365373
    C            1.053831419231     0.608214053189     0.517099454939
    C            0.009697231736    -0.005775672174    -1.658526004543
    H           -1.915821467441    -1.016591090455    -0.006602326737
    H           -1.869838261972    -1.068811958782     2.447150953037
    H            0.008907233751    -0.017904640394     3.688783925814
    H            1.883354176054     1.042199874929     2.448401531598
    H            1.909074727915     1.025567679387    -0.006411738185
    N           -0.689975493214    -0.920871384679    -2.327588978925
    N            0.690156010539     0.914906021378    -2.339004112481
    H            0.792008710567     0.883411809746    -3.346208419013
    H            1.057151864941     1.731594540717    -1.869922207863
    H           -1.050863445059    -1.736362510170    -1.851667315126
    H           -0.762888703930    -0.915598992612    -3.337877602295

  Mulliken Charges: (a.u.)
   Center  Symbol    Alpha    Beta     Spin     Total
       1     C     2.94355  2.94355  0.00000  0.11290
       2     C     3.08604  3.08604  0.00000 -0.17209
       3     C     3.06203  3.06203  0.00000 -0.12406
       4     C     3.05129  3.05129  0.00000 -0.10258
       5     C     3.06162  3.06162  0.00000 -0.12324
       6     C     3.08503  3.08503  0.00000 -0.17005
       7     C     2.71247  2.71247  0.00000  0.57506
       8     H     0.41591  0.41591  0.00000  0.16817
       9     H     0.40511  0.40511  0.00000  0.18978
      10     H     0.40315  0.40315  0.00000  0.19370
      11     H     0.40510  0.40510  0.00000  0.18981
      12     H     0.41646  0.41646  0.00000  0.16707
      13     N     3.87020  3.87020  0.00000 -0.74040
      14     N     3.86874  3.86874  0.00000 -0.73749
      15     H     0.30585  0.30585  0.00000  0.38830
      16     H     0.30040  0.30040  0.00000  0.39921
      17     H     0.30113  0.30113  0.00000  0.39774
      18     H     0.30592  0.30592  0.00000  0.38816

   Total alpha = 32.00000, Total beta = 32.00000, Total charge =  1.00000

*** Psi4 exiting successfully. Buy a developer a beer!
