                               Psi4 1.1 release

  ==> Input File <==

--------------------------------------------------------------------------
set {
	reference rks
	basis 6-31G*
}

set_num_threads( 8 )
memory 2 gb

molecule MOL {
1 1

C	 1.441303	 -0.197070	 -1.470058
C	 2.053232	 0.203006	 -0.267334
C	 3.419847	 0.009227	 -0.092590
C	 4.180684	 -0.571627	 -1.111884
C	 3.576409	 -0.965829	 -2.309666
C	 2.208962	 -0.785779	 -2.492401
C	 -0.000000	 -0.000000	 -1.658508
H	 1.459072	 0.615166	 0.543428
H	 3.889781	 0.301232	 0.840914
H	 5.247411	 -0.717481	 -0.972409
H	 4.172451	 -1.403585	 -3.103794
H	 1.751737	 -1.054182	 -3.440632
N	 -0.712589	 -0.905950	 -2.322235
N	 -0.591729	 1.084291	 -1.165321
H	 -1.595403	 1.221766	 -1.187777
H	 -0.030562	 1.845762	 -0.806800
H	 -1.377189	 -1.485970	 -1.827091
H	 -0.673431	 -1.006470	 -3.329771

	symmetry c1
}
set optking { dynamic_level = 1 }
set optking {
	frozen_dihedral = ("
		1 7 13 17
	")
}

ee,wfn = optimize('b3lyp-d3', return_wfn=True)
oeprop( wfn, 'DIPOLE', 'QUADRUPOLE', 'MULLIKEN_CHARGES')
f=open( 'psi4out.xyz', 'w' )
f.write( "18  " )
f.write( str(ee) + "\n" )
f.write( MOL.save_string_xyz() )
f.close()
--------------------------------------------------------------------------

    Molecular point group: c1
  Charge       = 1
  Multiplicity = 1
  Basis Set: 6-31G*
    Blend: 6-31G*
   => B3LYP Composite Functional <=
  Basis Set: (6-31G* AUX)
    Blend: CC-PVDZ-JKFIT
  @DF-RKS Final Energy:  -381.42694193791266
    Total Energy =                       -381.4269419379126589
    Molecular point group: c1
  Basis Set: 6-31G*
    Blend: 6-31G*
  Basis Set: (6-31G* AUX)
    Blend: CC-PVDZ-JKFIT
   => B3LYP Composite Functional <=
  Basis Set: 6-31G*
    Blend: 6-31G*
   => B3LYP Composite Functional <=
  Basis Set: (6-31G* AUX)
    Blend: CC-PVDZ-JKFIT
  @DF-RKS Final Energy:  -381.43501451803235
    Total Energy =                       -381.4350145180323466
  Basis Set: 6-31G*
    Blend: 6-31G*
  Basis Set: (6-31G* AUX)
  @DF-RKS Final Energy:  -381.44148653478152
    Total Energy =                       -381.4414865347814612
  @DF-RKS Final Energy:  -381.43501451788251
    Total Energy =                       -381.4350145178825073
  @DF-RKS Final Energy:  -381.43861049978375
    Total Energy =                       -381.4386104997836924
  @DF-RKS Final Energy:  -381.44137399368560
    Total Energy =                       -381.4413739936856587
  @DF-RKS Final Energy:  -381.44405277831908
    Total Energy =                       -381.4440527783190760
  @DF-RKS Final Energy:  -381.44651465442070
    Total Energy =                       -381.4465146544206959
  @DF-RKS Final Energy:  -381.44854647452507
    Total Energy =                       -381.4485464745250169
  @DF-RKS Final Energy:  -381.44998978498177
    Total Energy =                       -381.4499897849817103
  @DF-RKS Final Energy:  -381.45066635698788
    Total Energy =                       -381.4506663569878242
  @DF-RKS Final Energy:  -381.45075983784500
    Total Energy =                       -381.4507598378449984
  @DF-RKS Final Energy:  -381.45077496124844
    Total Energy =                       -381.4507749612484417
  @DF-RKS Final Energy:  -381.45063182783355
    Total Energy =                       -381.4506318278335470
  @DF-RKS Final Energy:  -381.45073978104494
    Total Energy =                       -381.4507397810449447
  @DF-RKS Final Energy:  -381.45077496223200
    Total Energy =                       -381.4507749622320034
   => B3LYP Composite Functional <=
  Basis Set: (6-31G* AUX)
    Blend: CC-PVDZ-JKFIT
  @DF-RKS Final Energy:  -381.45077662765476
    Total Energy =                       -381.4507766276547613
  Basis Set: 6-31G*
    Blend: 6-31G*
  Basis Set: (6-31G* AUX)
    Blend: CC-PVDZ-JKFIT
   => B3LYP Composite Functional <=
  Charge       = 1
  Multiplicity = 1
  Basis Set: 6-31G*
    Blend: 6-31G*
   => B3LYP Composite Functional <=
  Basis Set: (6-31G* AUX)
    Blend: CC-PVDZ-JKFIT

    Orbital Energies (a.u.)
    -----------------------

    Doubly Occupied:

       1A    -14.575602     2A    -14.544705     3A    -10.500802
       4A    -10.383388     5A    -10.367677     6A    -10.367270
       7A    -10.353424     8A    -10.348970     9A    -10.348362
      10A     -1.181702    11A     -1.084297    12A     -1.022576
      13A     -0.932471    14A     -0.911822    15A     -0.846111
      16A     -0.786947    17A     -0.776576    18A     -0.741005
      19A     -0.723036    20A     -0.676629    21A     -0.674100
      22A     -0.639777    23A     -0.609988    24A     -0.597910
      25A     -0.584333    26A     -0.580164    27A     -0.521239
      28A     -0.516940    29A     -0.506795    30A     -0.469138
      31A     -0.418756    32A     -0.414100

  @DF-RKS Final Energy:  -381.45077728356273

   => Energetics <=

    Nuclear Repulsion Energy =            415.9796086964825577
    One-Electron Energy =               -1326.9055897375581026
    Two-Electron Energy =                 573.8844047461291211
    DFT Exchange-Correlation Energy =     -44.3975622986162008
    Empirical Dispersion Energy =          -0.0116386900000000
    PCM Polarization Energy =               0.0000000000000000
    EFP Energy =                            0.0000000000000000
    Total Energy =                       -381.4507772835626724
    Molecular point group: c1
  Basis Set: 6-31G*
    Blend: 6-31G*
  Basis Set: (6-31G* AUX)
    Blend: CC-PVDZ-JKFIT
   => B3LYP Composite Functional <=

  -Total Gradient:
     Atom            X                  Y                   Z
    ------   -----------------  -----------------  -----------------
       1       -0.001906465970    -0.006054788268     0.006820343179
       2        0.000020125349    -0.000043257335    -0.000002687921
       3       -0.000019915986    -0.000012701369     0.000020055683
       4       -0.000016313364    -0.000005960375    -0.000010472947
       5       -0.000013532976    -0.000001372513    -0.000011440381
       6       -0.000014715959     0.000004316325    -0.000022535172
       7        0.005647496417     0.006760404290    -0.010590315571
       8       -0.000027330092    -0.000056526700     0.000028887759
       9        0.000009281740    -0.000001803913    -0.000003233451
      10       -0.000005652684    -0.000000435838    -0.000010598329
      11       -0.000007855249     0.000001086225     0.000002849658
      12       -0.000010494681     0.000104029804    -0.000030197242
      13       -0.012319442570     0.008098684231     0.003975839577
      14        0.000044316566     0.000142034604    -0.000078095474
      15       -0.000005717002    -0.000040911048     0.000081739532
      16        0.000033673507     0.000072036262    -0.000123848365
      17        0.008485300493    -0.008922881155    -0.000020501933
      18        0.000100587538    -0.000042249586    -0.000026854214

  **** Optimization is complete! (in 3 steps) ****
    Final optimized geometry and variables:
    Molecular point group: c1

    Geometry (in Angstrom), charge = 1, multiplicity = 1:

    C           -0.180139536843     0.054061135390    -0.037643662609
    C            0.479819892822     0.541833999333     1.112059693953
    C            1.833637823757     0.297790019210     1.300351386847
    C            2.560278748118    -0.408683331331     0.336184441016
    C            1.924308539577    -0.883252612861    -0.814337135918
    C            0.565052267379    -0.662751344020    -0.998212446823
    C           -1.612326809595     0.281123178162    -0.232041251050
    H           -0.058093335079     1.068150077570     1.894737537818
    H            2.323381932904     0.655746783139     2.199945620534
    H            3.620291314321    -0.590883692298     0.483478856987
    H            2.487416356240    -1.425250846058    -1.566820419666
    H            0.107487955103    -1.028236623145    -1.912589458343
    N           -2.380111386138    -0.442568037468    -1.107053047789
    N           -2.284476569845     1.136403274340     0.521099438493
    H           -3.270383664886     1.300080525686     0.348345043840
    H           -1.834907925160     1.718083322527     1.215145586906
    H           -3.051941697577    -1.074410605202    -0.675981839904
    H           -1.840380104625    -0.977783627330    -1.779062810743

  Mulliken Charges: (a.u.)
   Center  Symbol    Alpha    Beta     Spin     Total
       1     C     2.92173  2.92173  0.00000  0.15654
       2     C     3.08457  3.08457  0.00000 -0.16914
       3     C     3.06095  3.06095  0.00000 -0.12190
       4     C     3.05008  3.05008  0.00000 -0.10016
       5     C     3.06187  3.06187  0.00000 -0.12374
       6     C     3.08859  3.08859  0.00000 -0.17719
       7     C     2.75935  2.75935  0.00000  0.48131
       8     H     0.42000  0.42000  0.00000  0.16001
       9     H     0.40339  0.40339  0.00000  0.19322
      10     H     0.40096  0.40096  0.00000  0.19808
      11     H     0.40313  0.40313  0.00000  0.19374
      12     H     0.41522  0.41522  0.00000  0.16956
      13     N     3.86792  3.86792  0.00000 -0.73584
      14     N     3.85075  3.85075  0.00000 -0.70150
      15     H     0.29796  0.29796  0.00000  0.40408
      16     H     0.29910  0.29910  0.00000  0.40179
      17     H     0.30413  0.30413  0.00000  0.39175
      18     H     0.31031  0.31031  0.00000  0.37937

   Total alpha = 32.00000, Total beta = 32.00000, Total charge =  1.00000

*** Psi4 exiting successfully. Buy a developer a beer!
