                               Psi4 1.1 release

  ==> Input File <==

--------------------------------------------------------------------------
set_num_threads(1)
set_memory(4203741184)

set { reference rks }
set { basis cc-pVDZ }

molecule MOL {
    0 1
    noreorient
    nocom
    symmetry c1
    O    1.141000   0.017000   0.083000
    C    2.558000   0.086000  -0.005000
    C    3.192000  -0.789000   1.067000
    O    2.981809  -0.216513   2.352087
    H    0.789000   0.590000  -0.620000
    H    2.874000   1.128000   0.115000
    H    2.871000  -0.243000  -1.001000
    H    4.267474  -0.890463   0.890937
    H    2.755315  -1.793891   1.047569
    H    3.404808  -0.812409   2.994632
}

set optking { frozen_dihedral = (" 1 2 3 4 ") }

energy, wfn = energy('B3LYP-D3', return_wfn=True)

import os
os.chdir(os.environ['HTMD_PSI4_WORKDIR'])

oeprop(wfn, 'DIPOLE', 'QUADRUPOLE', 'MULLIKEN_CHARGES')

with open('psi4out.xyz', 'w') as f:
    f.write('10 ' )
    f.write('%.12f\n' % energy)
    f.write(MOL.save_string_xyz())
--------------------------------------------------------------------------

    Molecular point group: c1

    Geometry (in Angstrom), charge = 0, multiplicity = 1:

       Center              X                  Y                   Z               Mass
    ------------   -----------------  -----------------  -----------------  -----------------
           O          1.141000000000     0.017000000000     0.083000000000    15.994914619560
           C          2.558000000000     0.086000000000    -0.005000000000    12.000000000000
           C          3.192000000000    -0.789000000000     1.067000000000    12.000000000000
           O          2.981809000000    -0.216513000000     2.352087000000    15.994914619560
           H          0.789000000000     0.590000000000    -0.620000000000     1.007825032070
           H          2.874000000000     1.128000000000     0.115000000000     1.007825032070
           H          2.871000000000    -0.243000000000    -1.001000000000     1.007825032070
           H          4.267474000000    -0.890463000000     0.890937000000     1.007825032070
           H          2.755315000000    -1.793891000000     1.047569000000     1.007825032070
           H          3.404808000000    -0.812409000000     2.994632000000     1.007825032070

  Charge       = 0
  Multiplicity = 1
  Basis Set: CC-PVDZ
    Blend: CC-PVDZ
   => B3LYP Composite Functional <=
  Basis Set: (CC-PVDZ AUX)
    Blend: CC-PVDZ-JKFIT

    Orbital Energies (a.u.)
    -----------------------

    Doubly Occupied:

       1A    -19.125249     2A    -19.125218     3A    -10.227263
       4A    -10.227075     5A     -1.016467     6A     -1.000019
       7A     -0.733708     8A     -0.602468     9A     -0.518107
      10A     -0.505284    11A     -0.433594    12A     -0.418111
      13A     -0.405741    14A     -0.341966    15A     -0.318006
      16A     -0.264066    17A     -0.255888

  @DF-RKS Final Energy:  -230.25643091281381

   => Energetics <=

    Nuclear Repulsion Energy =            131.4804496530864810
    One-Electron Energy =                -574.8061875463141632
    Two-Electron Energy =                 237.6102542524319858
    DFT Exchange-Correlation Energy =     -24.5365849220180792
    Empirical Dispersion Energy =          -0.0043623500000000
    PCM Polarization Energy =               0.0000000000000000
    EFP Energy =                            0.0000000000000000
    Total Energy =                       -230.2564309128138120

  Mulliken Charges: (a.u.)
   Center  Symbol    Alpha    Beta     Spin     Total
       1     O     4.13586  4.13586  0.00000 -0.27172
       2     C     2.93184  2.93184  0.00000  0.13632
       3     C     2.93198  2.93198  0.00000  0.13605
       4     O     4.13611  4.13611  0.00000 -0.27222
       5     H     0.43080  0.43080  0.00000  0.13840
       6     H     0.49744  0.49744  0.00000  0.00512
       7     H     0.50401  0.50401  0.00000 -0.00801
       8     H     0.50388  0.50388  0.00000 -0.00777
       9     H     0.49734  0.49734  0.00000  0.00532
      10     H     0.43074  0.43074  0.00000  0.13851

   Total alpha = 17.00000, Total beta = 17.00000, Total charge =  0.00000

*** Psi4 exiting successfully. Buy a developer a beer!
