                               Psi4 1.1 release

  ==> Input File <==

--------------------------------------------------------------------------
set_num_threads(1)
set_memory(4203741184)

set { reference rks }
set { basis cc-pVDZ }

molecule MOL {
    0 1
    noreorient
    nocom
    symmetry c1
    O    1.050400   0.042900  -0.048100
    C    2.474100   0.047400  -0.029000
    C    3.002600  -1.068900  -0.932000
    N    4.462700  -1.072400  -1.006800
    H    0.760400   0.728400   0.578000
    H    2.809900  -0.097900   1.003200
    H    2.817400   1.026800  -0.378600
    H    2.581000  -0.963300  -1.938400
    H    2.653800  -2.036400  -0.553400
    H    4.816012  -1.965946  -0.665877
    H    4.825666  -0.366398  -0.366434
}

set optking { frozen_dihedral = (" 2 3 4 10 ") }

energy, wfn = energy('B3LYP-D3', return_wfn=True)

import os
os.chdir(os.environ['HTMD_PSI4_WORKDIR'])

oeprop(wfn, 'DIPOLE', 'QUADRUPOLE', 'MULLIKEN_CHARGES')

with open('psi4out.xyz', 'w') as f:
    f.write('11 ' )
    f.write('%.12f\n' % energy)
    f.write(MOL.save_string_xyz())
--------------------------------------------------------------------------

    Molecular point group: c1

    Geometry (in Angstrom), charge = 0, multiplicity = 1:

       Center              X                  Y                   Z               Mass
    ------------   -----------------  -----------------  -----------------  -----------------
           O          1.050400000000     0.042900000000    -0.048100000000    15.994914619560
           C          2.474100000000     0.047400000000    -0.029000000000    12.000000000000
           C          3.002600000000    -1.068900000000    -0.932000000000    12.000000000000
           N          4.462700000000    -1.072400000000    -1.006800000000    14.003074004780
           H          0.760400000000     0.728400000000     0.578000000000     1.007825032070
           H          2.809900000000    -0.097900000000     1.003200000000     1.007825032070
           H          2.817400000000     1.026800000000    -0.378600000000     1.007825032070
           H          2.581000000000    -0.963300000000    -1.938400000000     1.007825032070
           H          2.653800000000    -2.036400000000    -0.553400000000     1.007825032070
           H          4.816012000000    -1.965946000000    -0.665877000000     1.007825032070
           H          4.825666000000    -0.366398000000    -0.366434000000     1.007825032070

  Charge       = 0
  Multiplicity = 1
  Basis Set: CC-PVDZ
    Blend: CC-PVDZ
   => B3LYP Composite Functional <=
  Basis Set: (CC-PVDZ AUX)
    Blend: CC-PVDZ-JKFIT

    Orbital Energies (a.u.)
    -----------------------

    Doubly Occupied:

       1A    -19.130404     2A    -14.304479     3A    -10.229283
       4A    -10.201249     5A     -1.012927     6A     -0.878199
       7A     -0.712339     8A     -0.604492     9A     -0.508856
      10A     -0.485440    11A     -0.460443    12A     -0.412175
      13A     -0.389253    14A     -0.365593    15A     -0.327507
      16A     -0.264713    17A     -0.230838

  @DF-RKS Final Energy:  -210.38768528476652

   => Energetics <=

    Nuclear Repulsion Energy =            130.7703259387967876
    One-Electron Energy =                -544.3967616571691224
    Two-Electron Energy =                 226.7314494001566914
    DFT Exchange-Correlation Energy =     -23.4877682865508461
    Empirical Dispersion Energy =          -0.0049306800000000
    PCM Polarization Energy =               0.0000000000000000
    EFP Energy =                            0.0000000000000000
    Total Energy =                       -210.3876852847665191

  Mulliken Charges: (a.u.)
   Center  Symbol    Alpha    Beta     Spin     Total
       1     O     4.13728  4.13728  0.00000 -0.27457
       2     C     2.94354  2.94354  0.00000  0.11292
       3     C     2.97835  2.97835  0.00000  0.04330
       4     N     3.59076  3.59076  0.00000 -0.18152
       5     H     0.43035  0.43035  0.00000  0.13930
       6     H     0.50408  0.50408  0.00000 -0.00816
       7     H     0.49769  0.49769  0.00000  0.00463
       8     H     0.48999  0.48999  0.00000  0.02003
       9     H     0.49618  0.49618  0.00000  0.00764
      10     H     0.46253  0.46253  0.00000  0.07493
      11     H     0.46925  0.46925  0.00000  0.06150

   Total alpha = 17.00000, Total beta = 17.00000, Total charge = -0.00000

*** Psi4 exiting successfully. Buy a developer a beer!
