                               Psi4 1.1 release

  ==> Input File <==

--------------------------------------------------------------------------
set_num_threads( 8 )
memory 2.000000 gb

set { reference rks }
set { basis cc-pVDZ }

molecule MOL {
    0 1
    noreorient
    nocom
    symmetry c1
    O    1.141000   0.017000   0.083000
    C    2.558000   0.086000  -0.005000
    C    3.192000  -0.789000   1.067000
    O    4.591874  -0.545012   1.131735
    H    0.789000   0.590000  -0.620000
    H    2.874000   1.128000   0.115000
    H    2.871000  -0.243000  -1.001000
    H    3.022087  -1.847477   0.846336
    H    2.746637  -0.577391   2.045648
    H    4.943707  -1.126674   1.827988
}

set optking { frozen_dihedral = (" 1 2 3 4, 2 3 4 10 ") }

energy, wfn = energy('B3LYP-D3', return_wfn=True)

import os
os.chdir(os.environ['HTMD_PSI4_WORKDIR'])

oeprop(wfn, 'DIPOLE', 'QUADRUPOLE', 'MULLIKEN_CHARGES')

with open('psi4out.xyz', 'w') as f:
    f.write('10 ' )
    f.write('%.12f\n' % energy)
    f.write(MOL.save_string_xyz())
--------------------------------------------------------------------------

    Molecular point group: c1

    Geometry (in Angstrom), charge = 0, multiplicity = 1:

       Center              X                  Y                   Z               Mass
    ------------   -----------------  -----------------  -----------------  -----------------
           O          1.141000000000     0.017000000000     0.083000000000    15.994914619560
           C          2.558000000000     0.086000000000    -0.005000000000    12.000000000000
           C          3.192000000000    -0.789000000000     1.067000000000    12.000000000000
           O          4.591874000000    -0.545012000000     1.131735000000    15.994914619560
           H          0.789000000000     0.590000000000    -0.620000000000     1.007825032070
           H          2.874000000000     1.128000000000     0.115000000000     1.007825032070
           H          2.871000000000    -0.243000000000    -1.001000000000     1.007825032070
           H          3.022087000000    -1.847477000000     0.846336000000     1.007825032070
           H          2.746637000000    -0.577391000000     2.045648000000     1.007825032070
           H          4.943707000000    -1.126674000000     1.827988000000     1.007825032070

  Charge       = 0
  Multiplicity = 1
  Basis Set: CC-PVDZ
    Blend: CC-PVDZ
   => B3LYP Composite Functional <=
  Basis Set: (CC-PVDZ AUX)
    Blend: CC-PVDZ-JKFIT

    Orbital Energies (a.u.)
    -----------------------

    Doubly Occupied:

       1A    -19.131586     2A    -19.131542     3A    -10.226288
       4A    -10.226092     5A     -1.018802     6A     -1.008486
       7A     -0.732360     8A     -0.603624     9A     -0.525829
      10A     -0.483010    11A     -0.470670    12A     -0.412209
      13A     -0.395457    14A     -0.350132    15A     -0.319314
      16A     -0.264174    17A     -0.263132

  @DF-RKS Final Energy:  -230.25704975653849

   => Energetics <=

    Nuclear Repulsion Energy =            129.4613380338766149
    One-Electron Energy =                -570.6785419555964154
    Two-Electron Energy =                 235.5035171164339545
    DFT Exchange-Correlation Energy =     -24.5389637212526353
    Empirical Dispersion Energy =          -0.0043992300000000
    PCM Polarization Energy =               0.0000000000000000
    EFP Energy =                            0.0000000000000000
    Total Energy =                       -230.2570497565384926

  Mulliken Charges: (a.u.)
   Center  Symbol    Alpha    Beta     Spin     Total
       1     O     4.14044  4.14044  0.00000 -0.28088
       2     C     2.93613  2.93613  0.00000  0.12774
       3     C     2.93629  2.93629  0.00000  0.12742
       4     O     4.14066  4.14066  0.00000 -0.28133
       5     H     0.42744  0.42744  0.00000  0.14511
       6     H     0.49751  0.49751  0.00000  0.00498
       7     H     0.49842  0.49842  0.00000  0.00316
       8     H     0.49829  0.49829  0.00000  0.00341
       9     H     0.49742  0.49742  0.00000  0.00516
      10     H     0.42739  0.42739  0.00000  0.14523

   Total alpha = 17.00000, Total beta = 17.00000, Total charge =  0.00000

*** Psi4 exiting successfully. Buy a developer a beer!
