                               Psi4 1.1 release

  ==> Input File <==

--------------------------------------------------------------------------
set_num_threads(1)
set_memory(3145728000)

set { reference rks }
set { basis 6-31G* }

molecule MOL {
    1 1
    noreorient
    nocom
    symmetry c1
    C    0.000000   0.000000  -0.177864
    C    0.036678   1.219374   0.524165
    C    0.031764   1.213119   1.915444
    C   -0.000000  -0.000000   2.610107
    C   -0.031764  -1.213119   1.915444
    C   -0.036677  -1.219374   0.524165
    C    0.000000  -0.000000  -1.644734
    H    0.018170   2.164705  -0.010853
    H    0.042402   2.152895   2.457886
    H   -0.000000  -0.000000   3.695756
    H   -0.042402  -2.152895   2.457886
    H   -0.018170  -2.164705  -0.010853
    N   -0.712590  -0.905950  -2.308460
    N    0.712590   0.905950  -2.308461
    H    0.673432   1.006469  -3.315997
    H    1.377190   1.485970  -1.813317
    H   -1.708506  -0.775024  -2.428010
    H   -0.294214  -1.706533  -2.767586
}

set optking { frozen_dihedral = (" 1 7 13 17 ") }

set optking { dynamic_level = 1
 geom_maxiter = 250
 print_trajectory_xyz_file = True }

energy, wfn = optimize('B3LYP-D3', return_wfn=True)

import os
os.chdir(os.environ['HTMD_PSI4_WORKDIR'])

oeprop(wfn, 'DIPOLE', 'QUADRUPOLE', 'MULLIKEN_CHARGES')

with open('psi4out.xyz', 'w') as f:
    f.write('18 ' )
    f.write('%.12f\n' % energy)
    f.write(MOL.save_string_xyz())
--------------------------------------------------------------------------

    Molecular point group: c1
  Charge       = 1
  Multiplicity = 1
  Basis Set: 6-31G*
    Blend: 6-31G*
   => B3LYP Composite Functional <=
  Basis Set: (6-31G* AUX)
    Blend: CC-PVDZ-JKFIT
  @DF-RKS Final Energy:  -381.43158075402363
    Total Energy =                       -381.4315807540236847
    Molecular point group: c1
  Basis Set: 6-31G*
    Blend: 6-31G*
  Basis Set: (6-31G* AUX)
    Blend: CC-PVDZ-JKFIT
   => B3LYP Composite Functional <=
  Basis Set: 6-31G*
    Blend: 6-31G*
   => B3LYP Composite Functional <=
  Basis Set: (6-31G* AUX)
    Blend: CC-PVDZ-JKFIT
  @DF-RKS Final Energy:  -381.44037048563149
    Total Energy =                       -381.4403704856314903
  Basis Set: 6-31G*
    Blend: 6-31G*
  Basis Set: (6-31G* AUX)
  @DF-RKS Final Energy:  -381.44548071546126
    Total Energy =                       -381.4454807154612581
  @DF-RKS Final Energy:  -381.44586264450334
    Total Energy =                       -381.4458626445033360
  @DF-RKS Final Energy:  -381.45195535953002
    Total Energy =                       -381.4519553595300181
  @DF-RKS Final Energy:  -381.45280845042453
    Total Energy =                       -381.4528084504245840
  @DF-RKS Final Energy:  -381.45298375352155
    Total Energy =                       -381.4529837535215506
  @DF-RKS Final Energy:  -381.45300209863126
    Total Energy =                       -381.4530020986312593
  @DF-RKS Final Energy:  -381.45300447215459
    Total Energy =                       -381.4530044721546460
  @DF-RKS Final Energy:  -381.45255286307696
    Total Energy =                       -381.4525528630769031
  @DF-RKS Final Energy:  -381.45300447215351
    Total Energy =                       -381.4530044721535091
  @DF-RKS Final Energy:  -381.45300556262077
    Total Energy =                       -381.4530055626207741
   => B3LYP Composite Functional <=
  Basis Set: (6-31G* AUX)
    Blend: CC-PVDZ-JKFIT
  @DF-RKS Final Energy:  -381.45300512121469
    Total Energy =                       -381.4530051212146304
  Basis Set: 6-31G*
    Blend: 6-31G*
  Basis Set: (6-31G* AUX)
    Blend: CC-PVDZ-JKFIT
   => B3LYP Composite Functional <=
  Charge       = 1
  Multiplicity = 1
  Basis Set: 6-31G*
    Blend: 6-31G*
   => B3LYP Composite Functional <=
  Basis Set: (6-31G* AUX)
    Blend: CC-PVDZ-JKFIT

    Orbital Energies (a.u.)
    -----------------------

    Doubly Occupied:

       1A    -14.579705     2A    -14.548951     3A    -10.496643
       4A    -10.373021     5A    -10.360430     6A    -10.355989
       7A    -10.349266     8A    -10.343555     9A    -10.341098
      10A     -1.180795    11A     -1.084439    12A     -1.016038
      13A     -0.929601    14A     -0.904176    15A     -0.842334
      16A     -0.776845    17A     -0.771739    18A     -0.736587
      19A     -0.722467    20A     -0.694464    21A     -0.667912
      22A     -0.626893    23A     -0.605415    24A     -0.581463
      25A     -0.580622    26A     -0.563225    27A     -0.517242
      28A     -0.508113    29A     -0.499146    30A     -0.477065
      31A     -0.415609    32A     -0.407714

  @DF-RKS Final Energy:  -381.45300582640630

   => Energetics <=

    Nuclear Repulsion Energy =            416.2347291656959669
    One-Electron Energy =               -1327.7198104048732148
    Two-Electron Energy =                 574.4363186967639194
    DFT Exchange-Correlation Energy =     -44.3925785039929721
    Empirical Dispersion Energy =          -0.0116647800000000
    PCM Polarization Energy =               0.0000000000000000
    EFP Energy =                            0.0000000000000000
    Total Energy =                       -381.4530058264062973
    Molecular point group: c1
  Basis Set: 6-31G*
    Blend: 6-31G*
  Basis Set: (6-31G* AUX)
    Blend: CC-PVDZ-JKFIT
   => B3LYP Composite Functional <=

  -Total Gradient:
     Atom            X                  Y                   Z
    ------   -----------------  -----------------  -----------------
       1        0.010503631321    -0.004843157357    -0.000104174355
       2        0.000033806685     0.000013581127     0.000042132256
       3       -0.000005068585     0.000017792388    -0.000026253526
       4        0.000001587697    -0.000013686495    -0.000003818920
       5       -0.000021983199    -0.000008492537     0.000001583241
       6        0.000003928762    -0.000024662352     0.000023740847
       7       -0.015877777426     0.010226535646    -0.004401156426
       8        0.000003808224    -0.000001685211     0.000013966683
       9       -0.000003606529     0.000000084769    -0.000000509139
      10        0.000000709146    -0.000000079509    -0.000000680659
      11       -0.000000248984     0.000000942317     0.000000891566
      12        0.000006854856     0.000004898432    -0.000002690753
      13        0.004648903728    -0.012981680932     0.018082962744
      14        0.000071987031    -0.000085338567     0.000096296227
      15        0.000017527338    -0.000016112605    -0.000001707364
      16        0.000023964987     0.000001718316    -0.000010436241
      17        0.000653775544     0.007781108459    -0.013688648611
      18       -0.000060196371    -0.000080282477    -0.000041070215

  **** Optimization is complete! (in 3 steps) ****
    Final optimized geometry and variables:
    Molecular point group: c1

    Geometry (in Angstrom), charge = 1, multiplicity = 1:

    C           -0.039953912767     0.010298882714    -0.157329603693
    C            0.081208250258     1.230652182097     0.546377267618
    C            0.117335125121     1.227503542318     1.933207396445
    C            0.023034594158     0.015807902255     2.630980914430
    C           -0.115678424093    -1.193798026449     1.942643196575
    C           -0.154930991339    -1.204202761937     0.553350227364
    C           -0.044931292231    -0.015441395848    -1.607933285225
    H            0.096727627653     2.177594284463     0.013072575652
    H            0.201465754951     2.163675850663     2.475283532299
    H            0.052587906320     0.017771671458     3.716436895228
    H           -0.184191278004    -2.127939924830     2.490467181160
    H           -0.230420274359    -2.138940114779     0.009321036999
    N           -0.548056266924    -1.113716328159    -2.263712228538
    N            0.646581634710     0.884854734994    -2.294752396616
    H            0.609298523383     0.936912206973    -3.306859304012
    H            1.263994934835     1.537989742331    -1.825262895517
    H           -1.563220379746    -1.161268657021    -2.340694377233
    H           -0.162948531926    -1.236871791241    -3.199878132938

  Mulliken Charges: (a.u.)
   Center  Symbol    Alpha    Beta     Spin     Total
       1     C     2.94831  2.94831  0.00000  0.10339
       2     C     3.08468  3.08468  0.00000 -0.16935
       3     C     3.06271  3.06271  0.00000 -0.12542
       4     C     3.04927  3.04927  0.00000 -0.09854
       5     C     3.06252  3.06252  0.00000 -0.12504
       6     C     3.06993  3.06993  0.00000 -0.13986
       7     C     2.76394  2.76394  0.00000  0.47211
       8     H     0.41571  0.41571  0.00000  0.16857
       9     H     0.40469  0.40469  0.00000  0.19063
      10     H     0.40216  0.40216  0.00000  0.19567
      11     H     0.40408  0.40408  0.00000  0.19183
      12     H     0.40212  0.40212  0.00000  0.19576
      13     N     3.85906  3.85906  0.00000 -0.71812
      14     N     3.84583  3.84583  0.00000 -0.69167
      15     H     0.30446  0.30446  0.00000  0.39109
      16     H     0.29938  0.29938  0.00000  0.40124
      17     H     0.30331  0.30331  0.00000  0.39338
      18     H     0.31784  0.31784  0.00000  0.36433

   Total alpha = 32.00000, Total beta = 32.00000, Total charge =  1.00000

*** Psi4 exiting successfully. Buy a developer a beer!
