                               Psi4 1.1 release

  ==> Input File <==

--------------------------------------------------------------------------
set_num_threads(1)
set_memory(3145728000)

set { reference rks }
set { basis 6-31G* }

molecule MOL {
    1 1
    noreorient
    nocom
    symmetry c1
    C    0.000000   0.000000  -0.177864
    C    0.036678   1.219374   0.524165
    C    0.031764   1.213119   1.915444
    C   -0.000000  -0.000000   2.610107
    C   -0.031764  -1.213119   1.915444
    C   -0.036677  -1.219374   0.524165
    C    0.000000  -0.000000  -1.644734
    H    0.018170   2.164705  -0.010853
    H    0.042402   2.152895   2.457886
    H   -0.000000  -0.000000   3.695756
    H   -0.042402  -2.152895   2.457886
    H   -0.018170  -2.164705  -0.010853
    N   -1.094470  -0.361477  -2.308461
    N    1.094470   0.361477  -2.308461
    H    1.117362   0.466897  -3.315997
    H    1.968877   0.477788  -1.813317
    H   -1.968877  -0.477788  -1.813317
    H   -1.117362  -0.466897  -3.315997
}

set optking { frozen_dihedral = (" 2 1 7 13 ") }

set optking { dynamic_level = 1
 geom_maxiter = 250
 print_trajectory_xyz_file = True }

energy, wfn = optimize('B3LYP-D3', return_wfn=True)

import os
os.chdir(os.environ['HTMD_PSI4_WORKDIR'])

oeprop(wfn, 'DIPOLE', 'QUADRUPOLE', 'MULLIKEN_CHARGES')

with open('psi4out.xyz', 'w') as f:
    f.write('18 ' )
    f.write('%.12f\n' % energy)
    f.write(MOL.save_string_xyz())
--------------------------------------------------------------------------

    Molecular point group: c1
  Charge       = 1
  Multiplicity = 1
  Basis Set: 6-31G*
    Blend: 6-31G*
   => B3LYP Composite Functional <=
  Basis Set: (6-31G* AUX)
    Blend: CC-PVDZ-JKFIT
  @DF-RKS Final Energy:  -381.46489283847592
    Total Energy =                       -381.4648928384759188
    Molecular point group: c1
  Basis Set: 6-31G*
    Blend: 6-31G*
  Basis Set: (6-31G* AUX)
    Blend: CC-PVDZ-JKFIT
   => B3LYP Composite Functional <=
  Basis Set: 6-31G*
    Blend: 6-31G*
   => B3LYP Composite Functional <=
  Basis Set: (6-31G* AUX)
    Blend: CC-PVDZ-JKFIT
  @DF-RKS Final Energy:  -381.46604716860065
    Total Energy =                       -381.4660471686007099
  Basis Set: 6-31G*
    Blend: 6-31G*
  Basis Set: (6-31G* AUX)
  @DF-RKS Final Energy:  -381.46627761768548
    Total Energy =                       -381.4662776176854777
  @DF-RKS Final Energy:  -381.46630053773492
    Total Energy =                       -381.4663005377349236
   => B3LYP Composite Functional <=
  Basis Set: (6-31G* AUX)
    Blend: CC-PVDZ-JKFIT
  @DF-RKS Final Energy:  -381.46630490039632
    Total Energy =                       -381.4663049003963238
  Basis Set: 6-31G*
    Blend: 6-31G*
  Basis Set: (6-31G* AUX)
    Blend: CC-PVDZ-JKFIT
   => B3LYP Composite Functional <=
  Charge       = 1
  Multiplicity = 1
  Basis Set: 6-31G*
    Blend: 6-31G*
   => B3LYP Composite Functional <=
  Basis Set: (6-31G* AUX)
    Blend: CC-PVDZ-JKFIT

    Orbital Energies (a.u.)
    -----------------------

    Doubly Occupied:

       1A    -14.574013     2A    -14.574001     3A    -10.501121
       4A    -10.369241     5A    -10.350991     6A    -10.350334
       7A    -10.335903     8A    -10.335364     9A    -10.335091
      10A     -1.188625    11A     -1.097677    12A     -1.010215
      13A     -0.923164    14A     -0.896860    15A     -0.845154
      16A     -0.787381    17A     -0.767656    18A     -0.751705
      19A     -0.728970    20A     -0.690585    21A     -0.667588
      22A     -0.622519    23A     -0.617988    24A     -0.579102
      25A     -0.574546    26A     -0.568632    27A     -0.516521
      28A     -0.498773    29A     -0.493191    30A     -0.477971
      31A     -0.406547    32A     -0.400217

  @DF-RKS Final Energy:  -381.46630522049310

   => Energetics <=

    Nuclear Repulsion Energy =            416.5297935477051396
    One-Electron Energy =               -1328.3703003967475524
    Two-Electron Energy =                 574.7904377282222868
    DFT Exchange-Correlation Energy =     -44.4044287796729904
    Empirical Dispersion Energy =          -0.0118073200000000
    PCM Polarization Energy =               0.0000000000000000
    EFP Energy =                            0.0000000000000000
    Total Energy =                       -381.4663052204930977
    Molecular point group: c1
  Basis Set: 6-31G*
    Blend: 6-31G*
  Basis Set: (6-31G* AUX)
    Blend: CC-PVDZ-JKFIT
   => B3LYP Composite Functional <=

  -Total Gradient:
     Atom            X                  Y                   Z
    ------   -----------------  -----------------  -----------------
       1        0.006016112323     0.001902433107    -0.000134635622
       2       -0.004588561483     0.000066472675     0.000108647947
       3       -0.000009506455    -0.000007355530     0.000017042584
       4       -0.000013950978     0.000017458468    -0.000006042835
       5        0.000003049903    -0.000008604122    -0.000012332932
       6        0.000006309215     0.000000592267     0.000016615353
       7        0.000185053670    -0.006586823570    -0.000065300517
       8       -0.000005327620     0.000003516906     0.000001005103
       9        0.000002402677    -0.000001071316     0.000001733975
      10        0.000004433713     0.000001097513     0.000002303031
      11        0.000001037059     0.000000935443     0.000004511857
      12        0.000005790758    -0.000002203099    -0.000004991064
      13       -0.001605047478     0.004589645981     0.000088098890
      14       -0.000034099442     0.000017402386    -0.000002540341
      15        0.000007175323    -0.000011818975     0.000002431880
      16        0.000015879098    -0.000002342847     0.000010490806
      17        0.000023454958     0.000013199554    -0.000016728143
      18        0.000000763472     0.000006846236    -0.000004464301

  **** Optimization is complete! (in 6 steps) ****
    Final optimized geometry and variables:
    Molecular point group: c1

    Geometry (in Angstrom), charge = 1, multiplicity = 1:

    C            0.070594132114    -0.020857803892    -0.175761527482
    C            0.108155239534     1.204896622917     0.507317126395
    C            0.058632986249     1.207459531502     1.900005036869
    C           -0.029552535648     0.001435892437     2.600619074932
    C           -0.082565822070    -1.215319727701     1.914412361159
    C           -0.052172449285    -1.232888220983     0.521577279475
    C            0.029707265075    -0.018790275813    -1.653364198135
    H            0.164812056116     2.139820336619    -0.042987066778
    H            0.082305383266     2.150681094190     2.436291342167
    H           -0.062705844842     0.009920327169     3.685711444744
    H           -0.151391075273    -2.149384646127     2.462665877285
    H           -0.094610205090    -2.175240426885    -0.017478979700
    N           -1.081402211999    -0.397220571525    -2.268697260110
    N            1.076752528889     0.431019288268    -2.329935715314
    H            1.086959363299     0.540342976875    -3.338469830591
    H            1.925958995057     0.661604136719    -1.829173536566
    H           -1.883855601343    -0.669018576646    -1.714478448772
    H           -1.165621204050    -0.468459957123    -3.277253979577

  Mulliken Charges: (a.u.)
   Center  Symbol    Alpha    Beta     Spin     Total
       1     C     2.98556  2.98556  0.00000  0.02889
       2     C     3.07114  3.07114  0.00000 -0.14228
       3     C     3.06231  3.06231  0.00000 -0.12463
       4     C     3.05303  3.05303  0.00000 -0.10606
       5     C     3.06305  3.06305  0.00000 -0.12610
       6     C     3.07564  3.07564  0.00000 -0.15128
       7     C     2.74207  2.74207  0.00000  0.51586
       8     H     0.41330  0.41330  0.00000  0.17340
       9     H     0.40678  0.40678  0.00000  0.18645
      10     H     0.40596  0.40596  0.00000  0.18808
      11     H     0.40681  0.40681  0.00000  0.18638
      12     H     0.41356  0.41356  0.00000  0.17288
      13     N     3.84774  3.84774  0.00000 -0.69548
      14     N     3.84960  3.84960  0.00000 -0.69921
      15     H     0.30529  0.30529  0.00000  0.38942
      16     H     0.29638  0.29638  0.00000  0.40724
      17     H     0.29650  0.29650  0.00000  0.40699
      18     H     0.30528  0.30528  0.00000  0.38944

   Total alpha = 32.00000, Total beta = 32.00000, Total charge =  1.00000

*** Psi4 exiting successfully. Buy a developer a beer!
