                               Psi4 1.1 release

  ==> Input File <==

--------------------------------------------------------------------------
set {
	reference rks
	basis 6-31G*
}

set_num_threads( 8 )
memory 2 gb

molecule MOL {
1 1

C	 -0.000000	 -0.000000	 -0.191639
C	 -0.643075	 1.036664	 0.510391
C	 -0.643716	 1.028737	 1.901670
C	 -0.000000	 0.000000	 2.596333
C	 0.643715	 -1.028737	 1.901670
C	 0.643074	 -1.036665	 0.510391
C	 -0.000000	 -0.000000	 -1.658508
H	 -1.180753	 1.814415	 -0.024627
H	 -1.154030	 1.817957	 2.444112
H	 -0.000000	 0.000000	 3.681982
H	 1.154031	 -1.817957	 2.444112
H	 1.180753	 -1.814415	 -0.024627
N	 -0.712589	 -0.905950	 -2.322235
N	 0.712590	 0.905950	 -2.322235
H	 0.673432	 1.006470	 -3.329771
H	 1.377190	 1.485970	 -1.827091
H	 -1.377189	 -1.485970	 -1.827091
H	 -0.673431	 -1.006470	 -3.329771

	symmetry c1
}
set optking { dynamic_level = 1 }
set optking {
	frozen_dihedral = ("
		2 1 7 13
	")
}

ee,wfn = optimize('b3lyp-d3', return_wfn=True)
oeprop( wfn, 'DIPOLE', 'QUADRUPOLE', 'MULLIKEN_CHARGES')
f=open( 'psi4out.xyz', 'w' )
f.write( "18  " )
f.write( str(ee) + "\n" )
f.write( MOL.save_string_xyz() )
f.close()
--------------------------------------------------------------------------

    Molecular point group: c1
  Charge       = 1
  Multiplicity = 1
  Basis Set: 6-31G*
    Blend: 6-31G*
   => B3LYP Composite Functional <=
  Basis Set: (6-31G* AUX)
    Blend: CC-PVDZ-JKFIT
  @DF-RKS Final Energy:  -381.46489281412090
    Total Energy =                       -381.4648928141209581
    Molecular point group: c1
  Basis Set: 6-31G*
    Blend: 6-31G*
  Basis Set: (6-31G* AUX)
    Blend: CC-PVDZ-JKFIT
   => B3LYP Composite Functional <=
  Basis Set: 6-31G*
    Blend: 6-31G*
   => B3LYP Composite Functional <=
  Basis Set: (6-31G* AUX)
    Blend: CC-PVDZ-JKFIT
  @DF-RKS Final Energy:  -381.46604716014656
    Total Energy =                       -381.4660471601465588
  Basis Set: 6-31G*
    Blend: 6-31G*
  Basis Set: (6-31G* AUX)
  @DF-RKS Final Energy:  -381.46627761467050
    Total Energy =                       -381.4662776146705596
  @DF-RKS Final Energy:  -381.46630053070845
    Total Energy =                       -381.4663005307085086
  @DF-RKS Final Energy:  -381.46627761584494
    Total Energy =                       -381.4662776158450015
  @DF-RKS Final Energy:  -381.46629705177440
    Total Energy =                       -381.4662970517744043
   => B3LYP Composite Functional <=
  Basis Set: (6-31G* AUX)
    Blend: CC-PVDZ-JKFIT
  @DF-RKS Final Energy:  -381.46630437226509
    Total Energy =                       -381.4663043722651423
  Basis Set: 6-31G*
    Blend: 6-31G*
  Basis Set: (6-31G* AUX)
    Blend: CC-PVDZ-JKFIT
   => B3LYP Composite Functional <=
  Charge       = 1
  Multiplicity = 1
  Basis Set: 6-31G*
    Blend: 6-31G*
   => B3LYP Composite Functional <=
  Basis Set: (6-31G* AUX)
    Blend: CC-PVDZ-JKFIT

    Orbital Energies (a.u.)
    -----------------------

    Doubly Occupied:

       1A    -14.574010     2A    -14.573997     3A    -10.501121
       4A    -10.369235     5A    -10.350988     6A    -10.350330
       7A    -10.335901     8A    -10.335360     9A    -10.335088
      10A     -1.188631    11A     -1.097685    12A     -1.010217
      13A     -0.923172    14A     -0.896860    15A     -0.845161
      16A     -0.787392    17A     -0.767660    18A     -0.751704
      19A     -0.728973    20A     -0.690605    21A     -0.667592
      22A     -0.622517    23A     -0.617992    24A     -0.579097
      25A     -0.574548    26A     -0.568630    27A     -0.516521
      28A     -0.498774    29A     -0.493188    30A     -0.477975
      31A     -0.406548    32A     -0.400216

  @DF-RKS Final Energy:  -381.46630514571746

   => Energetics <=

    Nuclear Repulsion Energy =            416.5322348185934516
    One-Electron Energy =               -1328.3750320557405757
    Two-Electron Energy =                 574.7928082052587797
    DFT Exchange-Correlation Energy =     -44.4045089838290892
    Empirical Dispersion Energy =          -0.0118071300000000
    PCM Polarization Energy =               0.0000000000000000
    EFP Energy =                            0.0000000000000000
    Total Energy =                       -381.4663051457174561
    Molecular point group: c1
  Basis Set: 6-31G*
    Blend: 6-31G*
  Basis Set: (6-31G* AUX)
    Blend: CC-PVDZ-JKFIT
   => B3LYP Composite Functional <=

  -Total Gradient:
     Atom            X                  Y                   Z
    ------   -----------------  -----------------  -----------------
       1        0.003961871681     0.004922325645    -0.000174089192
       2       -0.003876869819    -0.002486212983     0.000116711770
       3       -0.000011252138    -0.000013386742     0.000012830686
       4       -0.000003441046     0.000017687797    -0.000005447272
       5        0.000018369354    -0.000006381112    -0.000015051280
       6        0.000011347083    -0.000004108129     0.000018100388
       7        0.003803548831    -0.005397066620    -0.000040117641
       8       -0.000002961095    -0.000007337291     0.000007341430
       9        0.000007767068     0.000001415707     0.000000819595
      10       -0.000005432720    -0.000000775903     0.000001082262
      11       -0.000009229402     0.000003044243     0.000001134750
      12       -0.000004897841     0.000007331148     0.000000988046
      13       -0.003880025223     0.002894292820     0.000105775832
      14       -0.000025914140     0.000029880246     0.000012652232
      15        0.000011856180    -0.000006099313     0.000007394711
      16       -0.000002703995    -0.000021940565    -0.000010884121
      17        0.000026921027     0.000063593282    -0.000048911366
      18       -0.000006217489     0.000011413096     0.000015512415

  **** Optimization is complete! (in 4 steps) ****
    Final optimized geometry and variables:
    Molecular point group: c1

    Geometry (in Angstrom), charge = 1, multiplicity = 1:

    C            0.061119050542     0.019231206268    -0.186849733981
    C           -0.583674645406     1.062249083825     0.496398830080
    C           -0.625417837048     1.037453543584     1.889115104442
    C           -0.032827104299    -0.016705457009     2.589620125775
    C            0.593945770498    -1.060860069381     1.903266292774
    C            0.628051654222    -1.059103451555     0.510416552813
    C            0.025096526615    -0.001982203990    -1.664374057115
    H           -1.052781302462     1.873007753343    -0.053787676045
    H           -1.125837836378     1.837250735087     2.425517576529
    H           -0.064560487335    -0.027706008427     3.674730997496
    H            1.052218225011    -1.877736844302     2.451420088567
    H            1.112219161440    -1.868583358995    -0.028744135795
    N           -0.692922665642    -0.930941447921    -2.279102065404
    N            0.649599409359     0.950827200119    -2.341534877461
    H            0.597249016344     1.047321480640    -3.350065392227
    H            1.231111324038     1.611626340171    -1.841351805080
    H           -1.212396159331    -1.599856499976    -1.724535695695
    H           -0.724617780495    -1.036852116114    -3.287608348572

  Mulliken Charges: (a.u.)
   Center  Symbol    Alpha    Beta     Spin     Total
       1     C     2.98556  2.98556  0.00000  0.02887
       2     C     3.07114  3.07114  0.00000 -0.14227
       3     C     3.06231  3.06231  0.00000 -0.12462
       4     C     3.05303  3.05303  0.00000 -0.10606
       5     C     3.06305  3.06305  0.00000 -0.12610
       6     C     3.07563  3.07563  0.00000 -0.15126
       7     C     2.74208  2.74208  0.00000  0.51583
       8     H     0.41330  0.41330  0.00000  0.17340
       9     H     0.40678  0.40678  0.00000  0.18645
      10     H     0.40596  0.40596  0.00000  0.18808
      11     H     0.40681  0.40681  0.00000  0.18638
      12     H     0.41356  0.41356  0.00000  0.17288
      13     N     3.84773  3.84773  0.00000 -0.69547
      14     N     3.84960  3.84960  0.00000 -0.69920
      15     H     0.30529  0.30529  0.00000  0.38942
      16     H     0.29638  0.29638  0.00000  0.40723
      17     H     0.29650  0.29650  0.00000  0.40699
      18     H     0.30528  0.30528  0.00000  0.38944

   Total alpha = 32.00000, Total beta = 32.00000, Total charge =  1.00000

*** Psi4 exiting successfully. Buy a developer a beer!
