                               Psi4 1.1 release

  ==> Input File <==

--------------------------------------------------------------------------
set_num_threads( 8 )
memory 2.000000 gb

set { reference rks }
set { basis cc-pVDZ }

molecule MOL {
    0 1
    noreorient
    nocom
    symmetry c1
    O    1.141000   0.017000   0.083000
    C    2.558000   0.086000  -0.005000
    C    3.192000  -0.789000   1.067000
    O    4.324638  -1.467070   0.537170
    H    0.789000   0.590000  -0.620000
    H    2.874000   1.128000   0.115000
    H    2.871000  -0.243000  -1.001000
    H    2.471419  -1.526618   1.433906
    H    3.507716  -0.178893   1.920798
    H    4.688104  -2.008069   1.259734
}

set optking { frozen_dihedral = (" 1 2 3 4, 2 3 4 10 ") }

energy, wfn = energy('B3LYP-D3', return_wfn=True)

import os
os.chdir(os.environ['HTMD_PSI4_WORKDIR'])

oeprop(wfn, 'DIPOLE', 'QUADRUPOLE', 'MULLIKEN_CHARGES')

with open('psi4out.xyz', 'w') as f:
    f.write('10 ' )
    f.write('%.12f\n' % energy)
    f.write(MOL.save_string_xyz())
--------------------------------------------------------------------------

    Molecular point group: c1

    Geometry (in Angstrom), charge = 0, multiplicity = 1:

       Center              X                  Y                   Z               Mass
    ------------   -----------------  -----------------  -----------------  -----------------
           O          1.141000000000     0.017000000000     0.083000000000    15.994914619560
           C          2.558000000000     0.086000000000    -0.005000000000    12.000000000000
           C          3.192000000000    -0.789000000000     1.067000000000    12.000000000000
           O          4.324638000000    -1.467070000000     0.537170000000    15.994914619560
           H          0.789000000000     0.590000000000    -0.620000000000     1.007825032070
           H          2.874000000000     1.128000000000     0.115000000000     1.007825032070
           H          2.871000000000    -0.243000000000    -1.001000000000     1.007825032070
           H          2.471419000000    -1.526618000000     1.433906000000     1.007825032070
           H          3.507716000000    -0.178893000000     1.920798000000     1.007825032070
           H          4.688104000000    -2.008069000000     1.259734000000     1.007825032070

  Charge       = 0
  Multiplicity = 1
  Basis Set: CC-PVDZ
    Blend: CC-PVDZ
   => B3LYP Composite Functional <=
  Basis Set: (CC-PVDZ AUX)
    Blend: CC-PVDZ-JKFIT

    Orbital Energies (a.u.)
    -----------------------

    Doubly Occupied:

       1A    -19.130058     2A    -19.130015     3A    -10.225467
       4A    -10.225275     5A     -1.018025     6A     -1.006860
       7A     -0.732480     8A     -0.603342     9A     -0.523837
      10A     -0.497396    11A     -0.450879    12A     -0.411564
      13A     -0.400452    14A     -0.348258    15A     -0.320090
      16A     -0.264976    17A     -0.259150

  @DF-RKS Final Energy:  -230.25412551587812

   => Energetics <=

    Nuclear Repulsion Energy =            129.7494623361275217
    One-Electron Energy =                -571.2768316180797683
    Two-Electron Energy =                 235.8187438986612960
    DFT Exchange-Correlation Energy =     -24.5412129325871824
    Empirical Dispersion Energy =          -0.0042872000000000
    PCM Polarization Energy =               0.0000000000000000
    EFP Energy =                            0.0000000000000000
    Total Energy =                       -230.2541255158781155

  Mulliken Charges: (a.u.)
   Center  Symbol    Alpha    Beta     Spin     Total
       1     O     4.14055  4.14055  0.00000 -0.28111
       2     C     2.93463  2.93463  0.00000  0.13074
       3     C     2.93474  2.93474  0.00000  0.13052
       4     O     4.14077  4.14077  0.00000 -0.28154
       5     H     0.42917  0.42917  0.00000  0.14166
       6     H     0.50035  0.50035  0.00000 -0.00069
       7     H     0.49526  0.49526  0.00000  0.00949
       8     H     0.49516  0.49516  0.00000  0.00968
       9     H     0.50025  0.50025  0.00000 -0.00049
      10     H     0.42912  0.42912  0.00000  0.14176

   Total alpha = 17.00000, Total beta = 17.00000, Total charge =  0.00000

*** Psi4 exiting successfully. Buy a developer a beer!
