                               Psi4 1.1 release

  ==> Input File <==

--------------------------------------------------------------------------
set {
	reference rks
	basis 6-31G*
}

set_num_threads( 8 )
memory 2 gb

molecule MOL {
1 1

C	 -0.000000	 -0.000000	 -0.191639
C	 -0.754201	 -0.958853	 0.510391
C	 -0.746533	 -0.956743	 1.901670
C	 -0.000000	 0.000000	 2.596333
C	 0.746533	 0.956743	 1.901670
C	 0.754202	 0.958853	 0.510391
C	 -0.000000	 -0.000000	 -1.658508
H	 -1.301151	 -1.730111	 -0.024627
H	 -1.313620	 -1.706212	 2.444112
H	 -0.000000	 0.000000	 3.681982
H	 1.313619	 1.706212	 2.444112
H	 1.301151	 1.730111	 -0.024627
N	 -0.712589	 -0.905950	 -2.322235
N	 0.712590	 0.905950	 -2.322235
H	 0.673432	 1.006470	 -3.329771
H	 1.377190	 1.485970	 -1.827091
H	 -1.377189	 -1.485970	 -1.827091
H	 -0.673431	 -1.006470	 -3.329771

	symmetry c1
}
set optking { dynamic_level = 1 }
set optking {
	frozen_dihedral = ("
		2 1 7 13
	")
}

ee,wfn = optimize('b3lyp-d3', return_wfn=True)
oeprop( wfn, 'DIPOLE', 'QUADRUPOLE', 'MULLIKEN_CHARGES')
f=open( 'psi4out.xyz', 'w' )
f.write( "18  " )
f.write( str(ee) + "\n" )
f.write( MOL.save_string_xyz() )
f.close()
--------------------------------------------------------------------------

    Molecular point group: c1
  Charge       = 1
  Multiplicity = 1
  Basis Set: 6-31G*
    Blend: 6-31G*
   => B3LYP Composite Functional <=
  Basis Set: (6-31G* AUX)
    Blend: CC-PVDZ-JKFIT
  @DF-RKS Final Energy:  -381.46394989874256
    Total Energy =                       -381.4639498987425554
    Molecular point group: c1
  Basis Set: 6-31G*
    Blend: 6-31G*
  Basis Set: (6-31G* AUX)
    Blend: CC-PVDZ-JKFIT
   => B3LYP Composite Functional <=
  Basis Set: 6-31G*
    Blend: 6-31G*
   => B3LYP Composite Functional <=
  Basis Set: (6-31G* AUX)
    Blend: CC-PVDZ-JKFIT
  @DF-RKS Final Energy:  -381.46533208831926
    Total Energy =                       -381.4653320883193146
  Basis Set: 6-31G*
    Blend: 6-31G*
  Basis Set: (6-31G* AUX)
  @DF-RKS Final Energy:  -381.46580343248525
    Total Energy =                       -381.4658034324851883
  @DF-RKS Final Energy:  -381.46583616334880
    Total Energy =                       -381.4658361633487402
  @DF-RKS Final Energy:  -381.46585506663502
    Total Energy =                       -381.4658550666350720
  @DF-RKS Final Energy:  -381.46586558249533
    Total Energy =                       -381.4658655824953257
  @DF-RKS Final Energy:  -381.46585506647244
    Total Energy =                       -381.4658550664724999
  @DF-RKS Final Energy:  -381.46585506647943
    Total Energy =                       -381.4658550664794916
  @DF-RKS Final Energy:  -381.46585791026251
    Total Energy =                       -381.4658579102625140
   => B3LYP Composite Functional <=
  Basis Set: (6-31G* AUX)
    Blend: CC-PVDZ-JKFIT
  @DF-RKS Final Energy:  -381.46585905326674
    Total Energy =                       -381.4658590532667404
  Basis Set: 6-31G*
    Blend: 6-31G*
  Basis Set: (6-31G* AUX)
    Blend: CC-PVDZ-JKFIT
   => B3LYP Composite Functional <=
  Charge       = 1
  Multiplicity = 1
  Basis Set: 6-31G*
    Blend: 6-31G*
   => B3LYP Composite Functional <=
  Basis Set: (6-31G* AUX)
    Blend: CC-PVDZ-JKFIT

    Orbital Energies (a.u.)
    -----------------------

    Doubly Occupied:

       1A    -14.564908     2A    -14.564755     3A    -10.498692
       4A    -10.378667     5A    -10.361714     6A    -10.361643
       7A    -10.346562     8A    -10.342996     9A    -10.342954
      10A     -1.183278    11A     -1.088959    12A     -1.017473
      13A     -0.928929    14A     -0.906334    15A     -0.849074
      16A     -0.787411    17A     -0.776814    18A     -0.739996
      19A     -0.735928    20A     -0.686176    21A     -0.669510
      22A     -0.632424    23A     -0.609145    24A     -0.604289
      25A     -0.582583    26A     -0.578366    27A     -0.518386
      28A     -0.510210    29A     -0.501775    30A     -0.470103
      31A     -0.413563    32A     -0.408131

  @DF-RKS Final Energy:  -381.46585996926655

   => Energetics <=

    Nuclear Repulsion Energy =            416.4916920835966607
    One-Electron Energy =               -1328.0423568900985174
    Two-Electron Energy =                 574.5052605977551821
    DFT Exchange-Correlation Energy =     -44.4089925905199294
    Empirical Dispersion Energy =          -0.0114631700000000
    PCM Polarization Energy =               0.0000000000000000
    EFP Energy =                            0.0000000000000000
    Total Energy =                       -381.4658599692665462
    Molecular point group: c1
  Basis Set: 6-31G*
    Blend: 6-31G*
  Basis Set: (6-31G* AUX)
    Blend: CC-PVDZ-JKFIT
   => B3LYP Composite Functional <=

  -Total Gradient:
     Atom            X                  Y                   Z
    ------   -----------------  -----------------  -----------------
       1        0.004231098519    -0.003353462795     0.000046161644
       2       -0.002065933040     0.001601136987     0.000057040008
       3        0.000027731486    -0.000003189863     0.000003418084
       4       -0.000015971528     0.000008879372    -0.000032431115
       5       -0.000030838036     0.000002489067     0.000003741499
       6       -0.000018617018     0.000050863329    -0.000003287553
       7       -0.004384583231     0.003522054465    -0.000014025589
       8        0.000059790219    -0.000027241049     0.000007323414
       9       -0.000017853670     0.000010352611     0.000000028766
      10       -0.000006250875     0.000006308114    -0.000007084226
      11       -0.000000078575     0.000002340156    -0.000004592964
      12       -0.000023480603    -0.000003955658     0.000004955065
      13        0.002259103473    -0.001885215931    -0.000098902012
      14        0.000071059512     0.000040871659     0.000029946558
      15       -0.000030336718     0.000002773615     0.000024988806
      16        0.000038114559    -0.000077737385    -0.000040376755
      17       -0.000096723273     0.000084019332    -0.000014753735
      18        0.000004377100     0.000017904171     0.000045472348

  **** Optimization is complete! (in 4 steps) ****
    Final optimized geometry and variables:
    Molecular point group: c1

    Geometry (in Angstrom), charge = 1, multiplicity = 1:

    C            0.018471731480    -0.014052686951    -0.192651188520
    C           -0.723521435886    -0.972653292162     0.526819352844
    C           -0.729301239628    -0.965212292128     1.916454171885
    C           -0.002561860458     0.001984160194     2.615233239193
    C            0.728530765565     0.965808867163     1.916399312122
    C            0.733979728245     0.964556917536     0.526716286503
    C           -0.008862688172     0.007322631013    -1.664501265981
    H           -1.282904298300    -1.756722325902     0.026155462212
    H           -1.299908690939    -1.715505823416     2.453710895467
    H           -0.008565476679     0.006575877749     3.700742240483
    H            1.288452836511     1.724190949268     2.453538650049
    H            1.292407140136     1.749249476769     0.025991233005
    N           -0.732845550326    -0.875474444013    -2.351484990136
    N            0.723053912828     0.882259138281    -2.352387740187
    H            0.709090656090     0.919145573420    -3.363869393134
    H            1.364612576029     1.510636516576    -1.892600907314
    H           -1.378447576423    -1.499031845108    -1.890556010412
    H           -0.747949517003    -0.886999921505    -3.363593042958

  Mulliken Charges: (a.u.)
   Center  Symbol    Alpha    Beta     Spin     Total
       1     C     2.92437  2.92437  0.00000  0.15126
       2     C     3.08716  3.08716  0.00000 -0.17432
       3     C     3.06133  3.06133  0.00000 -0.12265
       4     C     3.05128  3.05128  0.00000 -0.10257
       5     C     3.06137  3.06137  0.00000 -0.12273
       6     C     3.08661  3.08661  0.00000 -0.17321
       7     C     2.70563  2.70563  0.00000  0.58875
       8     H     0.42194  0.42194  0.00000  0.15612
       9     H     0.40493  0.40493  0.00000  0.19015
      10     H     0.40262  0.40262  0.00000  0.19476
      11     H     0.40492  0.40492  0.00000  0.19016
      12     H     0.42218  0.42218  0.00000  0.15564
      13     N     3.87747  3.87747  0.00000 -0.75493
      14     N     3.87774  3.87774  0.00000 -0.75547
      15     H     0.30596  0.30596  0.00000  0.38808
      16     H     0.29900  0.29900  0.00000  0.40200
      17     H     0.29942  0.29942  0.00000  0.40116
      18     H     0.30609  0.30609  0.00000  0.38782

   Total alpha = 32.00000, Total beta = 32.00000, Total charge =  1.00000

*** Psi4 exiting successfully. Buy a developer a beer!
