                               Psi4 1.1 release

  ==> Input File <==

--------------------------------------------------------------------------
set_num_threads(1)
set_memory(3145728000)

set { reference rks }
set { basis 6-31G* }

molecule MOL {
    1 1
    noreorient
    nocom
    symmetry c1
    C    0.000000   0.000000  -0.177864
    C    0.036678   1.219374   0.524165
    C    0.031764   1.213119   1.915444
    C   -0.000000  -0.000000   2.610107
    C   -0.031764  -1.213119   1.915444
    C   -0.036677  -1.219374   0.524165
    C    0.000000  -0.000000  -1.644734
    H    0.018170   2.164705  -0.010853
    H    0.042402   2.152895   2.457886
    H   -0.000000  -0.000000   3.695756
    H   -0.042402  -2.152895   2.457886
    H   -0.018170  -2.164705  -0.010853
    N    0.361477  -1.094470  -2.308460
    N   -0.361477   1.094470  -2.308461
    H   -0.466897   1.117362  -3.315997
    H   -0.477788   1.968877  -1.813317
    H    0.477788  -1.968877  -1.813316
    H    0.466897  -1.117363  -3.315997
}

set optking { frozen_dihedral = (" 2 1 7 13 ") }

set optking { dynamic_level = 1
 geom_maxiter = 250
 print_trajectory_xyz_file = True }

energy, wfn = optimize('B3LYP-D3', return_wfn=True)

import os
os.chdir(os.environ['HTMD_PSI4_WORKDIR'])

oeprop(wfn, 'DIPOLE', 'QUADRUPOLE', 'MULLIKEN_CHARGES')

with open('psi4out.xyz', 'w') as f:
    f.write('18 ' )
    f.write('%.12f\n' % energy)
    f.write(MOL.save_string_xyz())
--------------------------------------------------------------------------

    Molecular point group: c1
  Charge       = 1
  Multiplicity = 1
  Basis Set: 6-31G*
    Blend: 6-31G*
   => B3LYP Composite Functional <=
  Basis Set: (6-31G* AUX)
    Blend: CC-PVDZ-JKFIT
  @DF-RKS Final Energy:  -381.46358803958941
    Total Energy =                       -381.4635880395894105
    Molecular point group: c1
  Basis Set: 6-31G*
    Blend: 6-31G*
  Basis Set: (6-31G* AUX)
    Blend: CC-PVDZ-JKFIT
   => B3LYP Composite Functional <=
  Basis Set: 6-31G*
    Blend: 6-31G*
   => B3LYP Composite Functional <=
  Basis Set: (6-31G* AUX)
    Blend: CC-PVDZ-JKFIT
  @DF-RKS Final Energy:  -381.46666310072885
    Total Energy =                       -381.4666631007288515
  Basis Set: 6-31G*
    Blend: 6-31G*
  Basis Set: (6-31G* AUX)
  @DF-RKS Final Energy:  -381.46837801678805
    Total Energy =                       -381.4683780167880514
  @DF-RKS Final Energy:  -381.46666310072885
    Total Energy =                       -381.4666631007288515
  @DF-RKS Final Energy:  -381.46808063784641
    Total Energy =                       -381.4680806378464126
  @DF-RKS Final Energy:  -381.46884320100878
    Total Energy =                       -381.4688432010087240
  @DF-RKS Final Energy:  -381.46920630198355
    Total Energy =                       -381.4692063019834904
  @DF-RKS Final Energy:  -381.46926423356553
    Total Energy =                       -381.4692642335654682
  @DF-RKS Final Energy:  -381.46927236382021
    Total Energy =                       -381.4692723638202096
   => B3LYP Composite Functional <=
  Basis Set: (6-31G* AUX)
    Blend: CC-PVDZ-JKFIT
  @DF-RKS Final Energy:  -381.46927576396047
    Total Energy =                       -381.4692757639605247
  Basis Set: 6-31G*
    Blend: 6-31G*
  Basis Set: (6-31G* AUX)
    Blend: CC-PVDZ-JKFIT
   => B3LYP Composite Functional <=
  Charge       = 1
  Multiplicity = 1
  Basis Set: 6-31G*
    Blend: 6-31G*
   => B3LYP Composite Functional <=
  Basis Set: (6-31G* AUX)
    Blend: CC-PVDZ-JKFIT

    Orbital Energies (a.u.)
    -----------------------

    Doubly Occupied:

       1A    -14.566398     2A    -14.566151     3A    -10.497133
       4A    -10.375242     5A    -10.358565     6A    -10.358349
       7A    -10.345280     8A    -10.341989     9A    -10.341867
      10A     -1.183015    11A     -1.090116    12A     -1.015774
      13A     -0.927874    14A     -0.904127    15A     -0.846437
      16A     -0.785672    17A     -0.775214    18A     -0.737884
      19A     -0.735545    20A     -0.688693    21A     -0.669284
      22A     -0.628769    23A     -0.613719    24A     -0.592686
      25A     -0.580776    26A     -0.574786    27A     -0.518406
      28A     -0.507885    29A     -0.499695    30A     -0.471893
      31A     -0.413006    32A     -0.407226

  @DF-RKS Final Energy:  -381.46927593291269

   => Energetics <=

    Nuclear Repulsion Energy =            416.8666975500259468
    One-Electron Energy =               -1328.8850682411866728
    Two-Electron Energy =                 574.9673936801908667
    DFT Exchange-Correlation Energy =     -44.4065716319428034
    Empirical Dispersion Energy =          -0.0117272900000000
    PCM Polarization Energy =               0.0000000000000000
    EFP Energy =                            0.0000000000000000
    Total Energy =                       -381.4692759329126943
    Molecular point group: c1
  Basis Set: 6-31G*
    Blend: 6-31G*
  Basis Set: (6-31G* AUX)
    Blend: CC-PVDZ-JKFIT
   => B3LYP Composite Functional <=

  -Total Gradient:
     Atom            X                  Y                   Z
    ------   -----------------  -----------------  -----------------
       1        0.003714773080    -0.000732009594    -0.000088193608
       2       -0.003632093831     0.000128534040     0.000067683948
       3       -0.000001426436     0.000001626471    -0.000004571441
       4        0.000006551125    -0.000001868708    -0.000005726525
       5        0.000002164407    -0.000004334392    -0.000001887875
       6       -0.000008835465     0.000000133492     0.000000005752
       7        0.003590348547     0.001809891743    -0.000040310834
       8       -0.000007880183    -0.000001561003    -0.000001817457
       9        0.000002385266    -0.000001206920    -0.000000132036
      10       -0.000002968028    -0.000000148310    -0.000000338129
      11       -0.000000829192     0.000001157430    -0.000000717048
      12       -0.000003331583     0.000002546367     0.000004398203
      13       -0.003620059229    -0.001216701055     0.000071817890
      14       -0.000045489582     0.000019648729     0.000010785924
      15        0.000016528653    -0.000002962785     0.000000651271
      16        0.000013844253    -0.000009380248    -0.000010448941
      17       -0.000012887128     0.000007534771    -0.000017731587
      18       -0.000018350638     0.000009697261     0.000002905396

  **** Optimization is complete! (in 8 steps) ****
    Final optimized geometry and variables:
    Molecular point group: c1

    Geometry (in Angstrom), charge = 1, multiplicity = 1:

    C            0.054004760279     0.000984800692    -0.176832676870
    C            0.109868152341     1.216575131299     0.533419302094
    C            0.081030261416     1.212798864545     1.923347773190
    C           -0.015371222965     0.003393019409     2.618390197148
    C           -0.086734511437    -1.206160721144     1.921309939467
    C           -0.059483144792    -1.211959512132     0.530983718488
    C            0.025066008839     0.001533007387    -1.643060841914
    H            0.241971663086     2.160378303845     0.012000877171
    H            0.143467101743     2.150913459696     2.465031922258
    H           -0.039104184078     0.004119023757     3.703764466118
    H           -0.181135495477    -2.142920656731     2.460732967682
    H           -0.179919671131    -2.154960366682     0.006150606184
    N            0.367240080381    -1.090636676394    -2.325147631000
    N           -0.393914476799     1.076251494406    -2.308388981304
    H           -0.362289775030     1.137316814961    -3.318916170640
    H           -0.847335478677     1.836561317414    -1.820576691531
    H            0.868710235067    -1.840955963524    -1.869424100657
    H            0.273930697232    -1.153232340803    -3.331783675884

  Mulliken Charges: (a.u.)
   Center  Symbol    Alpha    Beta     Spin     Total
       1     C     2.94354  2.94354  0.00000  0.11292
       2     C     3.08707  3.08707  0.00000 -0.17414
       3     C     3.06226  3.06226  0.00000 -0.12452
       4     C     3.05124  3.05124  0.00000 -0.10248
       5     C     3.06154  3.06154  0.00000 -0.12308
       6     C     3.08380  3.08380  0.00000 -0.16760
       7     C     2.71257  2.71257  0.00000  0.57486
       8     H     0.41591  0.41591  0.00000  0.16817
       9     H     0.40512  0.40512  0.00000  0.18976
      10     H     0.40316  0.40316  0.00000  0.19368
      11     H     0.40509  0.40509  0.00000  0.18982
      12     H     0.41644  0.41644  0.00000  0.16712
      13     N     3.86979  3.86979  0.00000 -0.73959
      14     N     3.86912  3.86912  0.00000 -0.73823
      15     H     0.30587  0.30587  0.00000  0.38826
      16     H     0.30065  0.30065  0.00000  0.39870
      17     H     0.30091  0.30091  0.00000  0.39819
      18     H     0.30591  0.30591  0.00000  0.38818

   Total alpha = 32.00000, Total beta = 32.00000, Total charge =  1.00000

*** Psi4 exiting successfully. Buy a developer a beer!
