                               Psi4 1.1 release

  ==> Input File <==

--------------------------------------------------------------------------
set_num_threads(1)
set_memory('2004 MB')

set { scf_mem_safety_factor 0.7 }

set { reference rks }
set { basis cc-pVDZ }

molecule MOL {
    0 1
    noreorient
    nocom
    symmetry c1
    O    1.141000   0.017000   0.083000
    C    2.558000   0.086000  -0.005000
    C    3.192000  -0.789000   1.067000
    O    4.610000  -0.719000   0.979000
    H    0.789000   0.590000  -0.620000
    H    2.874000   1.128000   0.115000
    H    2.871000  -0.243000  -1.001000
    H    2.876000  -1.830000   0.947000
    H    2.879000  -0.459000   2.064000
    H    4.849661  -1.037378   0.091259
}

set optking { frozen_dihedral = (" 2 3 4 10 ") }

energy, wfn = energy('B3LYP-D3', return_wfn=True)

import os
os.chdir(os.environ['HTMD_PSI4_WORKDIR'])

oeprop(wfn, 'DIPOLE', 'QUADRUPOLE', 'MULLIKEN_CHARGES')

with open('psi4out.xyz', 'w') as f:
    f.write('10 ' )
    f.write('%.12f\n' % energy)
    f.write(MOL.save_string_xyz())
--------------------------------------------------------------------------

    Molecular point group: c1

    Geometry (in Angstrom), charge = 0, multiplicity = 1:

       Center              X                  Y                   Z               Mass
    ------------   -----------------  -----------------  -----------------  -----------------
           O          1.141000000000     0.017000000000     0.083000000000    15.994914619560
           C          2.558000000000     0.086000000000    -0.005000000000    12.000000000000
           C          3.192000000000    -0.789000000000     1.067000000000    12.000000000000
           O          4.610000000000    -0.719000000000     0.979000000000    15.994914619560
           H          0.789000000000     0.590000000000    -0.620000000000     1.007825032070
           H          2.874000000000     1.128000000000     0.115000000000     1.007825032070
           H          2.871000000000    -0.243000000000    -1.001000000000     1.007825032070
           H          2.876000000000    -1.830000000000     0.947000000000     1.007825032070
           H          2.879000000000    -0.459000000000     2.064000000000     1.007825032070
           H          4.849661000000    -1.037378000000     0.091259000000     1.007825032070

  Charge       = 0
  Multiplicity = 1
  Basis Set: CC-PVDZ
    Blend: CC-PVDZ
   => B3LYP Composite Functional <=
  Basis Set: (CC-PVDZ AUX)
    Blend: CC-PVDZ-JKFIT

    Orbital Energies (a.u.)
    -----------------------

    Doubly Occupied:

       1A    -19.135015     2A    -19.134495     3A    -10.229304
       4A    -10.227295     5A     -1.022527     6A     -1.011149
       7A     -0.731758     8A     -0.617964     9A     -0.519091
      10A     -0.495745    11A     -0.456215    12A     -0.429389
      13A     -0.398187    14A     -0.345383    15A     -0.324658
      16A     -0.269252    17A     -0.268011

  @DF-RKS Final Energy:  -230.25872505415211

   => Energetics <=

    Nuclear Repulsion Energy =            129.9003786031084076
    One-Electron Energy =                -571.4547832490047767
    Two-Electron Energy =                 235.8382776986115914
    DFT Exchange-Correlation Energy =     -24.5379470068673093
    Empirical Dispersion Energy =          -0.0046511000000000
    PCM Polarization Energy =               0.0000000000000000
    EFP Energy =                            0.0000000000000000
    Total Energy =                       -230.2587250541521087

  Mulliken Charges: (a.u.)
   Center  Symbol    Alpha    Beta     Spin     Total
       1     O     4.13932  4.13932  0.00000 -0.27865
       2     C     2.94729  2.94729  0.00000  0.10542
       3     C     2.92688  2.92688  0.00000  0.14624
       4     O     4.13900  4.13900  0.00000 -0.27800
       5     H     0.42815  0.42815  0.00000  0.14371
       6     H     0.49790  0.49790  0.00000  0.00421
       7     H     0.50774  0.50774  0.00000 -0.01549
       8     H     0.49697  0.49697  0.00000  0.00605
       9     H     0.48554  0.48554  0.00000  0.02891
      10     H     0.43121  0.43121  0.00000  0.13759

   Total alpha = 17.00000, Total beta = 17.00000, Total charge = -0.00000

*** Psi4 exiting successfully. Buy a developer a beer!
