                               Psi4 1.1 release

  ==> Input File <==

--------------------------------------------------------------------------
set {
	reference rks
	basis 6-31G*
}

set_num_threads( 8 )
memory 2 gb

molecule MOL {
1 1

C	 -0.000000	 -0.000000	 -0.191639
C	 1.194090	 0.249733	 0.510391
C	 1.186860	 0.253046	 1.901670
C	 -0.000000	 0.000000	 2.596333
C	 -1.186860	 -0.253046	 1.901670
C	 -1.194091	 -0.249732	 0.510391
C	 -0.000000	 -0.000000	 -1.658508
H	 2.108833	 0.488979	 -0.024627
H	 2.103023	 0.462656	 2.444112
H	 -0.000000	 0.000000	 3.681982
H	 -2.103023	 -0.462656	 2.444112
H	 -2.108833	 -0.488979	 -0.024627
N	 -0.712589	 -0.905950	 -2.322235
N	 0.712590	 0.905950	 -2.322235
H	 0.673432	 1.006470	 -3.329771
H	 1.377190	 1.485970	 -1.827091
H	 -1.377189	 -1.485970	 -1.827091
H	 -0.673431	 -1.006470	 -3.329771

	symmetry c1
}
set optking { dynamic_level = 1 }
set optking {
	frozen_dihedral = ("
		2 1 7 13
	")
}

ee,wfn = optimize('b3lyp-d3', return_wfn=True)
oeprop( wfn, 'DIPOLE', 'QUADRUPOLE', 'MULLIKEN_CHARGES')
f=open( 'psi4out.xyz', 'w' )
f.write( "18  " )
f.write( str(ee) + "\n" )
f.write( MOL.save_string_xyz() )
f.close()
--------------------------------------------------------------------------

    Molecular point group: c1
  Charge       = 1
  Multiplicity = 1
  Basis Set: 6-31G*
    Blend: 6-31G*
   => B3LYP Composite Functional <=
  Basis Set: (6-31G* AUX)
    Blend: CC-PVDZ-JKFIT
  @DF-RKS Final Energy:  -381.46525557897530
    Total Energy =                       -381.4652555789753023
    Molecular point group: c1
  Basis Set: 6-31G*
    Blend: 6-31G*
  Basis Set: (6-31G* AUX)
    Blend: CC-PVDZ-JKFIT
   => B3LYP Composite Functional <=
  Basis Set: 6-31G*
    Blend: 6-31G*
   => B3LYP Composite Functional <=
  Basis Set: (6-31G* AUX)
    Blend: CC-PVDZ-JKFIT
  @DF-RKS Final Energy:  -381.46875958658086
    Total Energy =                       -381.4687595865808589
  Basis Set: 6-31G*
    Blend: 6-31G*
  Basis Set: (6-31G* AUX)
  @DF-RKS Final Energy:  -381.47014845593901
    Total Energy =                       -381.4701484559390110
  @DF-RKS Final Energy:  -381.47042909975619
    Total Energy =                       -381.4704290997561884
  @DF-RKS Final Energy:  -381.47044127864120
    Total Energy =                       -381.4704412786412036
   => B3LYP Composite Functional <=
  Basis Set: (6-31G* AUX)
    Blend: CC-PVDZ-JKFIT
  @DF-RKS Final Energy:  -381.47044868379385
    Total Energy =                       -381.4704486837939044
  Basis Set: 6-31G*
    Blend: 6-31G*
  Basis Set: (6-31G* AUX)
    Blend: CC-PVDZ-JKFIT
   => B3LYP Composite Functional <=
  Charge       = 1
  Multiplicity = 1
  Basis Set: 6-31G*
    Blend: 6-31G*
   => B3LYP Composite Functional <=
  Basis Set: (6-31G* AUX)
    Blend: CC-PVDZ-JKFIT

    Orbital Energies (a.u.)
    -----------------------

    Doubly Occupied:

       1A    -14.568529     2A    -14.568480     3A    -10.497344
       4A    -10.372757     5A    -10.355670     6A    -10.355565
       7A    -10.342373     8A    -10.340009     9A    -10.339945
      10A     -1.184144    11A     -1.092438    12A     -1.013908
      13A     -0.926295    14A     -0.901730    15A     -0.845263
      16A     -0.785808    17A     -0.772921    18A     -0.742611
      19A     -0.732401    20A     -0.688911    21A     -0.668986
      22A     -0.624774    23A     -0.617923    24A     -0.585893
      25A     -0.578608    26A     -0.572440    27A     -0.518266
      28A     -0.504881    29A     -0.497663    30A     -0.473211
      31A     -0.411293    32A     -0.405269

  @DF-RKS Final Energy:  -381.47044919950685

   => Energetics <=

    Nuclear Repulsion Energy =            416.9201741540892385
    One-Electron Energy =               -1329.0607191954040900
    Two-Electron Energy =                 575.0879613107731529
    DFT Exchange-Correlation Energy =     -44.4059053889651736
    Empirical Dispersion Energy =          -0.0119600800000000
    PCM Polarization Energy =               0.0000000000000000
    EFP Energy =                            0.0000000000000000
    Total Energy =                       -381.4704491995069020
    Molecular point group: c1
  Basis Set: 6-31G*
    Blend: 6-31G*
  Basis Set: (6-31G* AUX)
    Blend: CC-PVDZ-JKFIT
   => B3LYP Composite Functional <=

  -Total Gradient:
     Atom            X                  Y                   Z
    ------   -----------------  -----------------  -----------------
       1        0.000083805123     0.000905924085    -0.000043773562
       2        0.000169066985    -0.000794500675     0.000007219661
       3       -0.000000491403    -0.000008051114    -0.000006103146
       4        0.000000056123    -0.000012877839    -0.000010768241
       5        0.000000097200     0.000003521571    -0.000000638373
       6       -0.000019144854     0.000022168404     0.000014689922
       7       -0.000894234655     0.000411318231     0.000048345305
       8       -0.000009368335     0.000013626774    -0.000009740938
       9       -0.000001132963     0.000000443290     0.000000571710
      10       -0.000000745242     0.000006289431     0.000000209038
      11        0.000000062198    -0.000000122536     0.000000664810
      12        0.000002208544     0.000004704873    -0.000001345909
      13        0.000688600913    -0.000564818008    -0.000001354984
      14       -0.000024204372     0.000044003039     0.000035919747
      15        0.000016529022    -0.000015107177    -0.000007577108
      16       -0.000002689219    -0.000038272678    -0.000027277940
      17        0.000000186265     0.000007771457    -0.000018085129
      18       -0.000011163780     0.000012923535    -0.000001219786

  **** Optimization is complete! (in 7 steps) ****
    Final optimized geometry and variables:
    Molecular point group: c1

    Geometry (in Angstrom), charge = 1, multiplicity = 1:

    C           -0.003770334570     0.010309630716    -0.191298599604
    C            1.192741611206     0.252253413905     0.508540076750
    C            1.189434089547     0.238517742657     1.900009727114
    C            0.001065024456    -0.006076433754     2.595022310920
    C           -1.189405570059    -0.244611450405     1.901298054746
    C           -1.196789922254    -0.244893995490     0.509872516298
    C           -0.002234099895     0.003891835674    -1.658644150690
    H            2.124411547363     0.404055732212    -0.029203006231
    H            2.114016229506     0.408323685062     2.442128914330
    H            0.002787052984    -0.011588692272     3.680664701659
    H           -2.111905778706    -0.421777786547     2.444604139460
    H           -2.129769410910    -0.393722381106    -0.026572769683
    N           -0.722855297562    -0.898821607533    -2.317040329381
    N            0.729575870701     0.893002349335    -2.323326468387
    H            0.842941351261     0.871831826506    -3.330173650279
    H            1.153141471157     1.666511605284    -1.827600194213
    H           -1.152617588438    -1.663688518240    -1.813292740564
    H           -0.829707193184    -0.890904630910    -3.324793224181

  Mulliken Charges: (a.u.)
   Center  Symbol    Alpha    Beta     Spin     Total
       1     C     2.96005  2.96005  0.00000  0.07990
       2     C     3.08083  3.08083  0.00000 -0.16165
       3     C     3.06244  3.06244  0.00000 -0.12488
       4     C     3.05158  3.05158  0.00000 -0.10316
       5     C     3.06265  3.06265  0.00000 -0.12529
       6     C     3.08164  3.08164  0.00000 -0.16328
       7     C     2.72411  2.72411  0.00000  0.55179
       8     H     0.41401  0.41401  0.00000  0.17198
       9     H     0.40554  0.40554  0.00000  0.18893
      10     H     0.40406  0.40406  0.00000  0.19187
      11     H     0.40554  0.40554  0.00000  0.18892
      12     H     0.41396  0.41396  0.00000  0.17209
      13     N     3.86162  3.86162  0.00000 -0.72325
      14     N     3.86196  3.86196  0.00000 -0.72391
      15     H     0.30566  0.30566  0.00000  0.38868
      16     H     0.29937  0.29937  0.00000  0.40127
      17     H     0.29933  0.29933  0.00000  0.40133
      18     H     0.30566  0.30566  0.00000  0.38868

   Total alpha = 32.00000, Total beta = 32.00000, Total charge =  1.00000

*** Psi4 exiting successfully. Buy a developer a beer!
