                              Psi4 1.0.54 Driver

  ==> Input File <==

--------------------------------------------------------------------------
set_num_threads(1)
set_memory(3145728000)

set { reference rks }
set { basis 6-31G* }

molecule MOL {
    1 1
    noreorient
    nocom
    symmetry c1
    C    0.000000   0.000000  -0.177864
    C    0.036678   1.219374   0.524165
    C    0.031764   1.213119   1.915444
    C   -0.000000  -0.000000   2.610107
    C   -0.031764  -1.213119   1.915444
    C   -0.036677  -1.219374   0.524165
    C    0.000000  -0.000000  -1.644734
    H    0.018170   2.164705  -0.010853
    H    0.042402   2.152895   2.457886
    H   -0.000000  -0.000000   3.695756
    H   -0.042402  -2.152895   2.457886
    H   -0.018170  -2.164705  -0.010853
    N   -0.712590  -0.905950  -2.308460
    N    0.712590   0.905950  -2.308461
    H    0.673432   1.006469  -3.315997
    H    1.377190   1.485970  -1.813317
    H   -0.242311  -1.641143  -2.819941
    H   -1.724821  -0.940418  -2.277363
}

set optking { frozen_dihedral = (" 1 7 13 17 ") }

set optking { dynamic_level = 1
 geom_maxiter = 250
 print_trajectory_xyz_file = True }

energy, wfn = optimize('B3LYP-D3', return_wfn=True)

import os
os.chdir(os.environ['HTMD_PSI4_WORKDIR'])

oeprop(wfn, 'DIPOLE', 'QUADRUPOLE', 'MULLIKEN_CHARGES')

with open('psi4out.xyz', 'w') as f:
    f.write('18 ' )
    f.write('%.12f\n' % energy)
    f.write(MOL.save_string_xyz())
--------------------------------------------------------------------------

    Molecular point group: c1
  Charge       = 1
  Multiplicity = 1
  Basis Set: 6-31G*
   => B3LYP-D3 Composite Functional <=
  Basis Set:
  @DF-RKS Final Energy:  -381.43903073133714
    Total Energy =                       -381.4390307313370840
    Molecular point group: c1
  Basis Set: 6-31G*
  Basis Set:
   => B3LYP-D3 Composite Functional <=
  Basis Set: 6-31G*
   => B3LYP-D3 Composite Functional <=
  Basis Set:
  @DF-RKS Final Energy:  -381.44830955886658
    Total Energy =                       -381.4483095588666401
  Basis Set: 6-31G*
  Basis Set:
   => B3LYP-D3 Composite Functional <=
  Basis Set: 6-31G*
   => B3LYP-D3 Composite Functional <=
  Basis Set:
  @DF-RKS Final Energy:  -381.45135521408685
    Total Energy =                       -381.4513552140867887
  Basis Set: 6-31G*
  Basis Set:
  @DF-RKS Final Energy:  -381.45617977310854
    Total Energy =                       -381.4561797731086017
  @DF-RKS Final Energy:  -381.45674079908622
    Total Energy =                       -381.4567407990862193
  @DF-RKS Final Energy:  -381.45680213534189
    Total Energy =                       -381.4568021353419454
   => B3LYP-D3 Composite Functional <=
  Basis Set:
  @DF-RKS Final Energy:  -381.45682017779939
    Total Energy =                       -381.4568201777993863
  Basis Set: 6-31G*
  Basis Set:
   => B3LYP-D3 Composite Functional <=
  Basis Set: 6-31G*
   => B3LYP-D3 Composite Functional <=
  Basis Set:
  @DF-RKS Final Energy:  -381.45682174693042
    Total Energy =                       -381.4568217469305296
  Basis Set: 6-31G*
  Basis Set:
   => B3LYP-D3 Composite Functional <=
  Charge       = 1
  Multiplicity = 1
  Basis Set: 6-31G*
   => B3LYP-D3 Composite Functional <=
  Basis Set:

    Orbital Energies (a.u.)
    -----------------------

    Doubly Occupied:

       1A    -14.574633     2A    -14.547066     3A    -10.496423
       4A    -10.378518     5A    -10.364938     6A    -10.363927
       7A    -10.353016     8A    -10.347625     9A    -10.347587
      10A     -1.179471    11A     -1.083932    12A     -1.020654
      13A     -0.930823    14A     -0.909674    15A     -0.843093
      16A     -0.784461    17A     -0.772452    18A     -0.739433
      19A     -0.725716    20A     -0.680643    21A     -0.674819
      22A     -0.634944    23A     -0.614185    24A     -0.589500
      25A     -0.584711    26A     -0.565224    27A     -0.523989
      28A     -0.513439    29A     -0.504631    30A     -0.469581
      31A     -0.420493    32A     -0.413195

  @DF-RKS Final Energy:  -381.45682221374568

   => Energetics <=

    Nuclear Repulsion Energy =            416.4076057627829641
    One-Electron Energy =               -1327.8815888875597011
    Two-Electron Energy =                 574.4254427740535220
    DFT Exchange-Correlation Energy =     -44.3962606530225585
    Empirical Dispersion Energy =          -0.0120212100000000
    PCM Polarization Energy =               0.0000000000000000
    EFP Energy =                            0.0000000000000000
    Total Energy =                       -381.4568222137457951
    Molecular point group: c1
  Basis Set: 6-31G*
  Basis Set:
   => B3LYP-D3 Composite Functional <=

  -Total Gradient:
     Atom            X                  Y                   Z
    ------   -----------------  -----------------  -----------------
       1        0.008166349063    -0.005387071055    -0.000076714565
       2        0.000005808660     0.000019789105     0.000010676323
       3       -0.000003267298     0.000003094698    -0.000004358473
       4       -0.000000555638     0.000004236565     0.000006525405
       5        0.000002950290    -0.000006690085    -0.000010225468
       6       -0.000014478542    -0.000012535391     0.000016992934
       7       -0.013043180541     0.005822040775     0.003533537089
       8        0.000016011234    -0.000003172555    -0.000017296224
       9        0.000002282943     0.000002912084    -0.000000793747
      10       -0.000001667721     0.000000625975    -0.000000322753
      11       -0.000000794911    -0.000003635862    -0.000003305396
      12        0.000000140974    -0.000003136375    -0.000005605191
      13        0.004794469581     0.007775574778    -0.013742296787
      14        0.000096991953    -0.000049683020     0.000043685325
      15       -0.000010043221    -0.000005137313    -0.000001956804
      16        0.000004513656     0.000021938873     0.000015828327
      17       -0.000038429746    -0.008151405501     0.010226217673
      18        0.000019200146    -0.000035723213    -0.000011669804

  **** Optimization is complete! (in 9 steps) ****
    Final optimized geometry and variables:
    Molecular point group: c1

    Geometry (in Angstrom), charge = 1, multiplicity = 1:

    C           -0.057202279224     0.044014264097    -0.193593449193
    C            0.073494127701     1.246643063223     0.534783951107
    C            0.108503355782     1.215258908085     1.922704253014
    C            0.010534115324    -0.008655234090     2.595603261639
    C           -0.129605039720    -1.203720215624     1.881952449699
    C           -0.173820677992    -1.182746133390     0.492918517106
    C           -0.051853044869     0.056268611090    -1.649165932731
    H            0.096244861026     2.202048669932     0.017569729839
    H            0.195811566004     2.140365355650     2.482995853773
    H            0.038034862431    -0.029876461294     3.680807860205
    H           -0.198160507639    -2.149467755431     2.409420935004
    H           -0.248307380299    -2.116677925209    -0.055707429151
    N           -0.679657644698    -0.889503958494    -2.405730226287
    N            0.673585819663     0.944754544088    -2.312680600432
    H            0.601747545226     1.019705036781    -3.322156855961
    H            1.320388659147     1.561230326936    -1.835975719756
    H           -0.093197510318    -1.539476052078    -2.923625207920
    H           -1.403049827546    -1.399287044272    -1.907111389955

  Mulliken Charges: (a.u.)
   Center  Symbol    Alpha    Beta     Spin     Total
       1     C     2.94291  2.94291  0.00000  0.11419
       2     C     3.08265  3.08265  0.00000 -0.16530
       3     C     3.06192  3.06192  0.00000 -0.12384
       4     C     3.04980  3.04980  0.00000 -0.09961
       5     C     3.06200  3.06200  0.00000 -0.12400
       6     C     3.07909  3.07909  0.00000 -0.15817
       7     C     2.76085  2.76085  0.00000  0.47830
       8     H     0.41245  0.41245  0.00000  0.17509
       9     H     0.40333  0.40333  0.00000  0.19334
      10     H     0.40129  0.40129  0.00000  0.19741
      11     H     0.40352  0.40352  0.00000  0.19295
      12     H     0.41792  0.41792  0.00000  0.16417
      13     N     3.86484  3.86484  0.00000 -0.72967
      14     N     3.84294  3.84294  0.00000 -0.68589
      15     H     0.29919  0.29919  0.00000  0.40162
      16     H     0.30073  0.30073  0.00000  0.39854
      17     H     0.30422  0.30422  0.00000  0.39156
      18     H     0.31035  0.31035  0.00000  0.37931

   Total alpha = 32.00000, Total beta = 32.00000, Total charge =  1.00000

*** Psi4 exiting successfully. Buy a developer a beer!
