                              Psi4 1.0.54 Driver

  ==> Input File <==

--------------------------------------------------------------------------
set_num_threads(1)
set_memory(3145728000)

set { reference rks }
set { basis 6-31G* }

molecule MOL {
    1 1
    noreorient
    nocom
    symmetry c1
    C    0.000000   0.000000  -0.177864
    C    0.036678   1.219374   0.524165
    C    0.031764   1.213119   1.915444
    C   -0.000000  -0.000000   2.610107
    C   -0.031764  -1.213119   1.915444
    C   -0.036677  -1.219374   0.524165
    C    0.000000  -0.000000  -1.644734
    H    0.018170   2.164705  -0.010853
    H    0.042402   2.152895   2.457886
    H   -0.000000  -0.000000   3.695756
    H   -0.042402  -2.152895   2.457886
    H   -0.018170  -2.164705  -0.010853
    N    0.904833   0.714007  -2.308461
    N   -0.904833  -0.714008  -2.308460
    H   -0.890289  -0.820901  -3.315997
    H   -1.686726  -1.122370  -1.813316
    H    1.686726   1.122369  -1.813317
    H    0.890289   0.820900  -3.315997
}

set optking { frozen_dihedral = (" 2 1 7 13 ") }

set optking { dynamic_level = 1
 geom_maxiter = 250
 print_trajectory_xyz_file = True }

energy, wfn = optimize('B3LYP-D3', return_wfn=True)

import os
os.chdir(os.environ['HTMD_PSI4_WORKDIR'])

oeprop(wfn, 'DIPOLE', 'QUADRUPOLE', 'MULLIKEN_CHARGES')

with open('psi4out.xyz', 'w') as f:
    f.write('18 ' )
    f.write('%.12f\n' % energy)
    f.write(MOL.save_string_xyz())
--------------------------------------------------------------------------

    Molecular point group: c1
  Charge       = 1
  Multiplicity = 1
  Basis Set: 6-31G*
   => B3LYP-D3 Composite Functional <=
  Basis Set:
  @DF-RKS Final Energy:  -381.46921516899693
    Total Energy =                       -381.4692151689968114
    Molecular point group: c1
  Basis Set: 6-31G*
  Basis Set:
   => B3LYP-D3 Composite Functional <=
  Basis Set: 6-31G*
   => B3LYP-D3 Composite Functional <=
  Basis Set:
  @DF-RKS Final Energy:  -381.46952525147321
    Total Energy =                       -381.4695252514732715
  Basis Set: 6-31G*
  Basis Set:
   => B3LYP-D3 Composite Functional <=
  Basis Set: 6-31G*
   => B3LYP-D3 Composite Functional <=
  Basis Set:
  @DF-RKS Final Energy:  -381.46965210317239
    Total Energy =                       -381.4696521031723933
  Basis Set: 6-31G*
  Basis Set:
   => B3LYP-D3 Composite Functional <=
  Basis Set:
  @DF-RKS Final Energy:  -381.46966045656205
    Total Energy =                       -381.4696604565620532
  Basis Set: 6-31G*
  Basis Set:
   => B3LYP-D3 Composite Functional <=
  Basis Set: 6-31G*
   => B3LYP-D3 Composite Functional <=
  Basis Set:
  @DF-RKS Final Energy:  -381.46966172714247
    Total Energy =                       -381.4696617271425225
  Basis Set: 6-31G*
  Basis Set:
   => B3LYP-D3 Composite Functional <=
  Charge       = 1
  Multiplicity = 1
  Basis Set: 6-31G*
   => B3LYP-D3 Composite Functional <=
  Basis Set:

    Orbital Energies (a.u.)
    -----------------------

    Doubly Occupied:

       1A    -14.570097     2A    -14.570070     3A    -10.498164
       4A    -10.371587     5A    -10.354304     6A    -10.353899
       7A    -10.340464     8A    -10.338714     9A    -10.338611
      10A     -1.185314    11A     -1.094033    12A     -1.012836
      13A     -0.925362    14A     -0.900305    15A     -0.845001
      16A     -0.786184    17A     -0.771443    18A     -0.745500
      19A     -0.731115    20A     -0.689134    21A     -0.668666
      22A     -0.622593    23A     -0.619739    24A     -0.583274
      25A     -0.577357    26A     -0.571294    27A     -0.517956
      28A     -0.503048    29A     -0.496374    30A     -0.474458
      31A     -0.410000    32A     -0.403857

  @DF-RKS Final Energy:  -381.46966187379815

   => Energetics <=

    Nuclear Repulsion Energy =            416.8629499975511408
    One-Electron Energy =               -1328.9760282210700097
    Two-Electron Energy =                 575.0609199815692136
    DFT Exchange-Correlation Energy =     -44.4055213118484602
    Empirical Dispersion Energy =          -0.0119823200000000
    PCM Polarization Energy =               0.0000000000000000
    EFP Energy =                            0.0000000000000000
    Total Energy =                       -381.4696618737981453
    Molecular point group: c1
  Basis Set: 6-31G*
  Basis Set:
   => B3LYP-D3 Composite Functional <=

  -Total Gradient:
     Atom            X                  Y                   Z
    ------   -----------------  -----------------  -----------------
       1        0.005281969183    -0.001197869844    -0.000076602658
       2       -0.002975288837     0.000068870109     0.000042260858
       3       -0.000014325496     0.000000917693     0.000003374241
       4       -0.000003715614     0.000000975671    -0.000007159787
       5       -0.000000877215    -0.000000430476    -0.000001379473
       6        0.000009707770     0.000000725111     0.000005793975
       7       -0.004303716429     0.003584611500     0.000050077725
       8       -0.000002817427    -0.000001147445    -0.000002837495
       9        0.000003419831    -0.000001194311    -0.000001054269
      10        0.000003725534    -0.000002012821     0.000000489933
      11       -0.000001531409     0.000001372810     0.000003018659
      12        0.000000042796    -0.000001079398    -0.000005385342
      13        0.001986462930    -0.002453743567    -0.000048833819
      14        0.000018358806    -0.000008821724     0.000005252417
      15       -0.000004208776     0.000008247924     0.000001128110
      16       -0.000006647378    -0.000001061128     0.000006326577
      17        0.000002840661    -0.000000695239    -0.000000709293
      18        0.000003709334    -0.000004274756     0.000004626423

  **** Optimization is complete! (in 6 steps) ****
    Final optimized geometry and variables:
    Molecular point group: c1

    Geometry (in Angstrom), charge = 1, multiplicity = 1:

    C            0.032318279195     0.000599328282    -0.177902725572
    C            0.069423735070     1.220088720598     0.520846701772
    C            0.043434440490     1.212076429688     1.912848391811
    C           -0.015922900217    -0.001419109050     2.604466389971
    C           -0.060425340435    -1.213539645464     1.908428975730
    C           -0.051523616514    -1.219150583091     0.516522822999
    C            0.005783854576     0.008453878635    -1.647478422576
    H            0.087325104467     2.162461270492    -0.019581820421
    H            0.059869543948     2.150792401236     2.457071820253
    H           -0.030824509829    -0.002804746991     3.690018635100
    H           -0.099015860026    -2.153054646483     2.450181026671
    H           -0.064764099387    -2.160222286005    -0.026206026393
    N            0.893937195533     0.736974557799    -2.314220034219
    N           -0.878092041879    -0.744667643139    -2.292036550616
    H           -0.882619605547    -0.854471578091    -3.299833677422
    H           -1.617382640465    -1.200566894613    -1.772679857538
    H            1.635164256466     1.204848781888    -1.808403217702
    H            0.873315204554     0.853598764310    -3.321041431848

  Mulliken Charges: (a.u.)
   Center  Symbol    Alpha    Beta     Spin     Total
       1     C     2.96855  2.96855  0.00000  0.06290
       2     C     3.07824  3.07824  0.00000 -0.15647
       3     C     3.06205  3.06205  0.00000 -0.12409
       4     C     3.05202  3.05202  0.00000 -0.10403
       5     C     3.06302  3.06302  0.00000 -0.12605
       6     C     3.07942  3.07942  0.00000 -0.15883
       7     C     2.73029  2.73029  0.00000  0.53942
       8     H     0.41366  0.41366  0.00000  0.17268
       9     H     0.40588  0.40588  0.00000  0.18824
      10     H     0.40462  0.40462  0.00000  0.19077
      11     H     0.40587  0.40587  0.00000  0.18826
      12     H     0.41345  0.41345  0.00000  0.17311
      13     N     3.85677  3.85677  0.00000 -0.71354
      14     N     3.85817  3.85817  0.00000 -0.71635
      15     H     0.30550  0.30550  0.00000  0.38901
      16     H     0.29862  0.29862  0.00000  0.40276
      17     H     0.29825  0.29825  0.00000  0.40350
      18     H     0.30563  0.30563  0.00000  0.38873

   Total alpha = 32.00000, Total beta = 32.00000, Total charge =  1.00000

*** Psi4 exiting successfully. Buy a developer a beer!
