                               Psi4 1.1 release

  ==> Input File <==

--------------------------------------------------------------------------
set_num_threads(1)
set_memory(3145728000)

set { reference rks }
set { basis 6-31G* }

molecule MOL {
    1 1
    noreorient
    nocom
    symmetry c1
    C    0.000000   0.000000  -0.177864
    C    0.036678   1.219374   0.524165
    C    0.031764   1.213119   1.915444
    C   -0.000000  -0.000000   2.610107
    C   -0.031764  -1.213119   1.915444
    C   -0.036677  -1.219374   0.524165
    C    0.000000  -0.000000  -1.644734
    H    0.018170   2.164705  -0.010853
    H    0.042402   2.152895   2.457886
    H   -0.000000  -0.000000   3.695756
    H   -0.042402  -2.152895   2.457886
    H   -0.018170  -2.164705  -0.010853
    N   -0.712590  -0.905950  -2.308460
    N    0.712590   0.905950  -2.308461
    H    0.673432   1.006469  -3.315997
    H    1.377190   1.485970  -1.813317
    H   -1.253218  -1.593277  -1.799946
    H   -0.798094  -0.906843  -3.318141
}

set optking { frozen_dihedral = (" 1 7 13 17 ") }

set optking { dynamic_level = 1
 geom_maxiter = 250
 print_trajectory_xyz_file = True }

energy, wfn = optimize('B3LYP-D3', return_wfn=True)

import os
os.chdir(os.environ['HTMD_PSI4_WORKDIR'])

oeprop(wfn, 'DIPOLE', 'QUADRUPOLE', 'MULLIKEN_CHARGES')

with open('psi4out.xyz', 'w') as f:
    f.write('18 ' )
    f.write('%.12f\n' % energy)
    f.write(MOL.save_string_xyz())
--------------------------------------------------------------------------

    Molecular point group: c1
  Charge       = 1
  Multiplicity = 1
  Basis Set: 6-31G*
    Blend: 6-31G*
   => B3LYP Composite Functional <=
  Basis Set: (6-31G* AUX)
    Blend: CC-PVDZ-JKFIT
  @DF-RKS Final Energy:  -381.46931012720535
    Total Energy =                       -381.4693101272054037
    Molecular point group: c1
  Basis Set: 6-31G*
    Blend: 6-31G*
  Basis Set: (6-31G* AUX)
    Blend: CC-PVDZ-JKFIT
   => B3LYP Composite Functional <=
  Basis Set: 6-31G*
    Blend: 6-31G*
   => B3LYP Composite Functional <=
  Basis Set: (6-31G* AUX)
    Blend: CC-PVDZ-JKFIT
  @DF-RKS Final Energy:  -381.46986747166750
    Total Energy =                       -381.4698674716674986
  Basis Set: 6-31G*
    Blend: 6-31G*
  Basis Set: (6-31G* AUX)
  @DF-RKS Final Energy:  -381.47008790939157
    Total Energy =                       -381.4700879093915660
  @DF-RKS Final Energy:  -381.47012833287044
    Total Energy =                       -381.4701283328704449
   => B3LYP Composite Functional <=
  Basis Set: (6-31G* AUX)
    Blend: CC-PVDZ-JKFIT
  @DF-RKS Final Energy:  -381.47013016937149
    Total Energy =                       -381.4701301693714868
  Basis Set: 6-31G*
    Blend: 6-31G*
  Basis Set: (6-31G* AUX)
    Blend: CC-PVDZ-JKFIT
   => B3LYP Composite Functional <=
  Charge       = 1
  Multiplicity = 1
  Basis Set: 6-31G*
    Blend: 6-31G*
   => B3LYP Composite Functional <=
  Basis Set: (6-31G* AUX)
    Blend: CC-PVDZ-JKFIT

    Orbital Energies (a.u.)
    -----------------------

    Doubly Occupied:

       1A    -14.568431     2A    -14.568091     3A    -10.497612
       4A    -10.373681     5A    -10.356682     6A    -10.356201
       7A    -10.342827     8A    -10.340665     9A    -10.340476
      10A     -1.184206    11A     -1.092390    12A     -1.014484
      13A     -0.926674    14A     -0.902429    15A     -0.845759
      16A     -0.786224    17A     -0.773416    18A     -0.742405
      19A     -0.733212    20A     -0.687493    21A     -0.669165
      22A     -0.625721    23A     -0.618943    24A     -0.587417
      25A     -0.579135    26A     -0.573543    27A     -0.518547
      28A     -0.505658    29A     -0.498372    30A     -0.472623
      31A     -0.411601    32A     -0.405853

  @DF-RKS Final Energy:  -381.47013059434818

   => Energetics <=

    Nuclear Repulsion Energy =            416.9069124861077853
    One-Electron Energy =               -1329.0063821750909483
    Two-Electron Energy =                 575.0471451716289266
    DFT Exchange-Correlation Energy =     -44.4058891569940286
    Empirical Dispersion Energy =          -0.0119169200000000
    PCM Polarization Energy =               0.0000000000000000
    EFP Energy =                            0.0000000000000000
    Total Energy =                       -381.4701305943482339
    Molecular point group: c1
  Basis Set: 6-31G*
    Blend: 6-31G*
  Basis Set: (6-31G* AUX)
    Blend: CC-PVDZ-JKFIT
   => B3LYP Composite Functional <=

  -Total Gradient:
     Atom            X                  Y                   Z
    ------   -----------------  -----------------  -----------------
       1       -0.001260354893     0.001124594093     0.000067353743
       2        0.000002070924    -0.000009301614    -0.000028436446
       3       -0.000007415850    -0.000004469319     0.000006628889
       4        0.000002304575    -0.000012551435    -0.000002283920
       5       -0.000004810559     0.000014104139     0.000023670382
       6        0.000015160872    -0.000015836322    -0.000028520225
       7        0.002659452900    -0.002285377750    -0.000078682836
       8       -0.000000703576    -0.000000720778    -0.000007080394
       9       -0.000001491942     0.000000839101    -0.000005491178
      10        0.000002187753    -0.000004101769    -0.000001445311
      11        0.000000966435    -0.000001501347    -0.000000161851
      12       -0.000011777242     0.000002612976    -0.000002701409
      13       -0.003213337456     0.002769688099     0.000010354879
      14       -0.000022370677     0.000005472850     0.000026696195
      15        0.000007028859    -0.000001147091    -0.000004786262
      16        0.000009547619     0.000001003597     0.000004010602
      17        0.001825792150    -0.001578562039     0.000006985634
      18       -0.000007633878    -0.000008823853    -0.000003600532

  **** Optimization is complete! (in 6 steps) ****
    Final optimized geometry and variables:
    Molecular point group: c1

    Geometry (in Angstrom), charge = 1, multiplicity = 1:

    C            0.001912768099    -0.001276288456    -0.178068277097
    C            0.037131426411     1.217616354601     0.524023451505
    C            0.031575202110     1.210555291451     1.915553254178
    C            0.003044683544    -0.002538628834     2.610021553369
    C           -0.025399424899    -1.215377707585     1.914921469345
    C           -0.030787997435    -1.220588556057     0.523567314057
    C           -0.002316708902     0.000805093899    -1.646258575439
    H            0.016606345768     2.163219750210    -0.010344132075
    H            0.039576737118     2.150342357426     2.458043759319
    H            0.002873321743    -0.002895681220     3.695652234034
    H           -0.033356413959    -2.155506838759     2.456793372851
    H           -0.009458187580    -2.166996115682    -0.010088233561
    N           -0.753342049921    -0.873116741964    -2.309561659315
    N            0.710647918581     0.907034550485    -2.308705168794
    H            0.666273227879     1.015028636763    -3.315298599227
    H            1.371347212537     1.489643308793    -1.811568896673
    H           -1.320804728468    -1.538281152556    -1.800754541867
    H           -0.706212332626    -0.985348632517    -3.315701324610

  Mulliken Charges: (a.u.)
   Center  Symbol    Alpha    Beta     Spin     Total
       1     C     2.95486  2.95486  0.00000  0.09028
       2     C     3.08163  3.08163  0.00000 -0.16327
       3     C     3.06243  3.06243  0.00000 -0.12485
       4     C     3.05159  3.05159  0.00000 -0.10317
       5     C     3.06241  3.06241  0.00000 -0.12482
       6     C     3.08351  3.08351  0.00000 -0.16703
       7     C     2.72339  2.72339  0.00000  0.55322
       8     H     0.41413  0.41413  0.00000  0.17174
       9     H     0.40539  0.40539  0.00000  0.18923
      10     H     0.40391  0.40391  0.00000  0.19219
      11     H     0.40546  0.40546  0.00000  0.18909
      12     H     0.41542  0.41542  0.00000  0.16917
      13     N     3.86142  3.86142  0.00000 -0.72284
      14     N     3.86390  3.86390  0.00000 -0.72779
      15     H     0.30554  0.30554  0.00000  0.38892
      16     H     0.29955  0.29955  0.00000  0.40091
      17     H     0.29964  0.29964  0.00000  0.40073
      18     H     0.30585  0.30585  0.00000  0.38831

   Total alpha = 32.00000, Total beta = 32.00000, Total charge =  1.00000

*** Psi4 exiting successfully. Buy a developer a beer!
