                               Psi4 1.1 release

  ==> Input File <==

--------------------------------------------------------------------------
set_num_threads(1)
set_memory(4203741184)

set { reference rks }
set { basis cc-pVDZ }

molecule MOL {
    0 1
    noreorient
    nocom
    symmetry c1
    O    1.141000   0.017000   0.083000
    C    2.558000   0.086000  -0.005000
    C    3.192000  -0.789000   1.067000
    O    4.610000  -0.719000   0.979000
    H    0.807015   0.917255  -0.073321
    H    2.874000   1.128000   0.115000
    H    2.871000  -0.243000  -1.001000
    H    2.876000  -1.830000   0.947000
    H    2.879000  -0.459000   2.064000
    H    4.961000  -1.293000   1.682000
}

set optking { frozen_dihedral = (" 3 2 1 5 ") }

energy, wfn = energy('B3LYP-D3', return_wfn=True)

import os
os.chdir(os.environ['HTMD_PSI4_WORKDIR'])

oeprop(wfn, 'DIPOLE', 'QUADRUPOLE', 'MULLIKEN_CHARGES')

with open('psi4out.xyz', 'w') as f:
    f.write('10 ' )
    f.write('%.12f\n' % energy)
    f.write(MOL.save_string_xyz())
--------------------------------------------------------------------------

    Molecular point group: c1

    Geometry (in Angstrom), charge = 0, multiplicity = 1:

       Center              X                  Y                   Z               Mass
    ------------   -----------------  -----------------  -----------------  -----------------
           O          1.141000000000     0.017000000000     0.083000000000    15.994914619560
           C          2.558000000000     0.086000000000    -0.005000000000    12.000000000000
           C          3.192000000000    -0.789000000000     1.067000000000    12.000000000000
           O          4.610000000000    -0.719000000000     0.979000000000    15.994914619560
           H          0.807015000000     0.917255000000    -0.073321000000     1.007825032070
           H          2.874000000000     1.128000000000     0.115000000000     1.007825032070
           H          2.871000000000    -0.243000000000    -1.001000000000     1.007825032070
           H          2.876000000000    -1.830000000000     0.947000000000     1.007825032070
           H          2.879000000000    -0.459000000000     2.064000000000     1.007825032070
           H          4.961000000000    -1.293000000000     1.682000000000     1.007825032070

  Charge       = 0
  Multiplicity = 1
  Basis Set: CC-PVDZ
    Blend: CC-PVDZ
   => B3LYP Composite Functional <=
  Basis Set: (CC-PVDZ AUX)
    Blend: CC-PVDZ-JKFIT

    Orbital Energies (a.u.)
    -----------------------

    Doubly Occupied:

       1A    -19.132380     2A    -19.130911     3A    -10.226445
       4A    -10.224724     5A     -1.019041     6A     -1.008527
       7A     -0.731533     8A     -0.604856     9A     -0.526059
      10A     -0.487655    11A     -0.463512    12A     -0.416224
      13A     -0.395460    14A     -0.344943    15A     -0.320918
      16A     -0.266035    17A     -0.263333

  @DF-RKS Final Energy:  -230.25677817778515

   => Energetics <=

    Nuclear Repulsion Energy =            129.4979970771980788
    One-Electron Energy =                -570.7514733440860937
    Two-Electron Energy =                 235.5402302499607572
    DFT Exchange-Correlation Energy =     -24.5391131208578912
    Empirical Dispersion Energy =          -0.0044190400000000
    PCM Polarization Energy =               0.0000000000000000
    EFP Energy =                            0.0000000000000000
    Total Energy =                       -230.2567781777851508

  Mulliken Charges: (a.u.)
   Center  Symbol    Alpha    Beta     Spin     Total
       1     O     4.14013  4.14013  0.00000 -0.28026
       2     C     2.93720  2.93720  0.00000  0.12561
       3     C     2.93574  2.93574  0.00000  0.12852
       4     O     4.14103  4.14103  0.00000 -0.28205
       5     H     0.42694  0.42694  0.00000  0.14612
       6     H     0.49786  0.49786  0.00000  0.00428
       7     H     0.49476  0.49476  0.00000  0.01048
       8     H     0.49738  0.49738  0.00000  0.00525
       9     H     0.50135  0.50135  0.00000 -0.00269
      10     H     0.42762  0.42762  0.00000  0.14475

   Total alpha = 17.00000, Total beta = 17.00000, Total charge =  0.00000

*** Psi4 exiting successfully. Buy a developer a beer!
