                               Psi4 1.1 release

  ==> Input File <==

--------------------------------------------------------------------------
set_num_threads( 8 )
memory 2.000000 gb

set { reference rks }
set { basis cc-pVDZ }

molecule MOL {
    0 1
    noreorient
    nocom
    symmetry c1
    O    1.050400   0.042900  -0.048100
    C    2.474100   0.047400  -0.029000
    C    3.002600  -1.068900  -0.932000
    N    4.462700  -1.072400  -1.006800
    H    0.760400   0.728400   0.578000
    H    2.809900  -0.097900   1.003200
    H    2.817400   1.026800  -0.378600
    H    2.581000  -0.963300  -1.938400
    H    2.653800  -2.036400  -0.553400
    H    4.848205  -1.209062  -0.072888
    H    4.778033  -0.149865  -1.306374
}

set optking { frozen_dihedral = (" 2 3 4 10 ") }

energy, wfn = energy('B3LYP-D3', return_wfn=True)

import os
os.chdir(os.environ['HTMD_PSI4_WORKDIR'])

oeprop(wfn, 'DIPOLE', 'QUADRUPOLE', 'MULLIKEN_CHARGES')

with open('psi4out.xyz', 'w') as f:
    f.write('11 ' )
    f.write('%.12f\n' % energy)
    f.write(MOL.save_string_xyz())
--------------------------------------------------------------------------

    Molecular point group: c1

    Geometry (in Angstrom), charge = 0, multiplicity = 1:

       Center              X                  Y                   Z               Mass
    ------------   -----------------  -----------------  -----------------  -----------------
           O          1.050400000000     0.042900000000    -0.048100000000    15.994914619560
           C          2.474100000000     0.047400000000    -0.029000000000    12.000000000000
           C          3.002600000000    -1.068900000000    -0.932000000000    12.000000000000
           N          4.462700000000    -1.072400000000    -1.006800000000    14.003074004780
           H          0.760400000000     0.728400000000     0.578000000000     1.007825032070
           H          2.809900000000    -0.097900000000     1.003200000000     1.007825032070
           H          2.817400000000     1.026800000000    -0.378600000000     1.007825032070
           H          2.581000000000    -0.963300000000    -1.938400000000     1.007825032070
           H          2.653800000000    -2.036400000000    -0.553400000000     1.007825032070
           H          4.848205000000    -1.209062000000    -0.072888000000     1.007825032070
           H          4.778033000000    -0.149865000000    -1.306374000000     1.007825032070

  Charge       = 0
  Multiplicity = 1
  Basis Set: CC-PVDZ
    Blend: CC-PVDZ
   => B3LYP Composite Functional <=
  Basis Set: (CC-PVDZ AUX)
    Blend: CC-PVDZ-JKFIT

    Orbital Energies (a.u.)
    -----------------------

    Doubly Occupied:

       1A    -19.128417     2A    -14.308323     3A    -10.224557
       4A    -10.202934     5A     -1.011129     6A     -0.880125
       7A     -0.710707     8A     -0.605285     9A     -0.504751
      10A     -0.500063    11A     -0.438261    12A     -0.420659
      13A     -0.402769    14A     -0.350830    15A     -0.332112
      16A     -0.263539    17A     -0.236725

  @DF-RKS Final Energy:  -210.39358085585226

   => Energetics <=

    Nuclear Repulsion Energy =            130.8836915509513972
    One-Electron Energy =                -544.6303135734686975
    Two-Electron Energy =                 226.8439409448797903
    DFT Exchange-Correlation Energy =     -23.4857117882147826
    Empirical Dispersion Energy =          -0.0051879900000000
    PCM Polarization Energy =               0.0000000000000000
    EFP Energy =                            0.0000000000000000
    Total Energy =                       -210.3935808558522638

  Mulliken Charges: (a.u.)
   Center  Symbol    Alpha    Beta     Spin     Total
       1     O     4.13879  4.13879  0.00000 -0.27758
       2     C     2.94200  2.94200  0.00000  0.11601
       3     C     2.97746  2.97746  0.00000  0.04509
       4     N     3.59035  3.59035  0.00000 -0.18070
       5     H     0.43098  0.43098  0.00000  0.13804
       6     H     0.50568  0.50568  0.00000 -0.01136
       7     H     0.50578  0.50578  0.00000 -0.01156
       8     H     0.48837  0.48837  0.00000  0.02326
       9     H     0.48919  0.48919  0.00000  0.02161
      10     H     0.46563  0.46563  0.00000  0.06875
      11     H     0.46578  0.46578  0.00000  0.06845

   Total alpha = 17.00000, Total beta = 17.00000, Total charge = -0.00000

*** Psi4 exiting successfully. Buy a developer a beer!
