                               Psi4 1.1 release

  ==> Input File <==

--------------------------------------------------------------------------
set_num_threads( 8 )
memory 2.000000 gb

set { reference rks }
set { basis cc-pVDZ }

molecule MOL {
    0 1
    noreorient
    nocom
    symmetry c1
    O    1.050400   0.042900  -0.048100
    C    2.474100   0.047400  -0.029000
    C    3.002600  -1.068900  -0.932000
    N    1.994914  -2.097922  -1.183361
    H    0.760400   0.728400   0.578000
    H    2.809900  -0.097900   1.003200
    H    2.817400   1.026800  -0.378600
    H    3.890838  -1.524062  -0.478569
    H    3.331086  -0.638656  -1.884913
    H    1.778859  -2.579060  -0.310832
    H    2.394866  -2.805011  -1.800057
}

set optking { frozen_dihedral = (" 1 2 3 4 ") }

energy, wfn = energy('B3LYP-D3', return_wfn=True)

import os
os.chdir(os.environ['HTMD_PSI4_WORKDIR'])

oeprop(wfn, 'DIPOLE', 'QUADRUPOLE', 'MULLIKEN_CHARGES')

with open('psi4out.xyz', 'w') as f:
    f.write('11 ' )
    f.write('%.12f\n' % energy)
    f.write(MOL.save_string_xyz())
--------------------------------------------------------------------------

    Molecular point group: c1

    Geometry (in Angstrom), charge = 0, multiplicity = 1:

       Center              X                  Y                   Z               Mass
    ------------   -----------------  -----------------  -----------------  -----------------
           O          1.050400000000     0.042900000000    -0.048100000000    15.994914619560
           C          2.474100000000     0.047400000000    -0.029000000000    12.000000000000
           C          3.002600000000    -1.068900000000    -0.932000000000    12.000000000000
           N          1.994914000000    -2.097922000000    -1.183361000000    14.003074004780
           H          0.760400000000     0.728400000000     0.578000000000     1.007825032070
           H          2.809900000000    -0.097900000000     1.003200000000     1.007825032070
           H          2.817400000000     1.026800000000    -0.378600000000     1.007825032070
           H          3.890838000000    -1.524062000000    -0.478569000000     1.007825032070
           H          3.331086000000    -0.638656000000    -1.884913000000     1.007825032070
           H          1.778859000000    -2.579060000000    -0.310832000000     1.007825032070
           H          2.394866000000    -2.805011000000    -1.800057000000     1.007825032070

  Charge       = 0
  Multiplicity = 1
  Basis Set: CC-PVDZ
    Blend: CC-PVDZ
   => B3LYP Composite Functional <=
  Basis Set: (CC-PVDZ AUX)
    Blend: CC-PVDZ-JKFIT

    Orbital Energies (a.u.)
    -----------------------

    Doubly Occupied:

       1A    -19.120736     2A    -14.294794     3A    -10.222828
       4A    -10.201273     5A     -1.004670     6A     -0.867644
       7A     -0.713975     8A     -0.590968     9A     -0.508552
      10A     -0.482647    11A     -0.440183    12A     -0.415079
      13A     -0.387305    14A     -0.359418    15A     -0.319068
      16A     -0.254360    17A     -0.219531

  @DF-RKS Final Energy:  -210.38176548780535

   => Energetics <=

    Nuclear Repulsion Energy =            133.8904027020902561
    One-Electron Energy =                -550.8547249661118030
    Two-Electron Energy =                 230.0764508572503928
    DFT Exchange-Correlation Energy =     -23.4890388610341745
    Empirical Dispersion Energy =          -0.0048552200000000
    PCM Polarization Energy =               0.0000000000000000
    EFP Energy =                            0.0000000000000000
    Total Energy =                       -210.3817654878053531

  Mulliken Charges: (a.u.)
   Center  Symbol    Alpha    Beta     Spin     Total
       1     O     4.13078  4.13078  0.00000 -0.26156
       2     C     2.93250  2.93250  0.00000  0.13500
       3     C     2.98579  2.98579  0.00000  0.02842
       4     N     3.57912  3.57912  0.00000 -0.15823
       5     H     0.43334  0.43334  0.00000  0.13331
       6     H     0.50401  0.50401  0.00000 -0.00802
       7     H     0.50115  0.50115  0.00000 -0.00229
       8     H     0.50584  0.50584  0.00000 -0.01168
       9     H     0.49270  0.49270  0.00000  0.01461
      10     H     0.46690  0.46690  0.00000  0.06619
      11     H     0.46788  0.46788  0.00000  0.06425

   Total alpha = 17.00000, Total beta = 17.00000, Total charge =  0.00000

*** Psi4 exiting successfully. Buy a developer a beer!
