                               Psi4 1.1 release

  ==> Input File <==

--------------------------------------------------------------------------
set_num_threads(1)
set_memory(4203741184)

set { reference rks }
set { basis cc-pVDZ }

molecule MOL {
    0 1
    noreorient
    nocom
    symmetry c1
    O    1.014300  -0.002300   0.060500
    O    2.462400  -0.107500  -0.002400
    H    0.821200  -0.823600  -0.430600
    H    2.496856  -1.065087  -0.188615
}

set optking { frozen_dihedral = (" 3 1 2 4 ") }

set optking { dynamic_level = 1
 geom_maxiter = 250
 print_trajectory_xyz_file = True }

energy, wfn = optimize('B3LYP-D3', return_wfn=True)

import os
os.chdir(os.environ['HTMD_PSI4_WORKDIR'])

oeprop(wfn, 'DIPOLE', 'QUADRUPOLE', 'MULLIKEN_CHARGES')

with open('psi4out.xyz', 'w') as f:
    f.write('4 ' )
    f.write('%.12f\n' % energy)
    f.write(MOL.save_string_xyz())
--------------------------------------------------------------------------

    Molecular point group: c1
  Charge       = 0
  Multiplicity = 1
  Basis Set: CC-PVDZ
    Blend: CC-PVDZ
   => B3LYP Composite Functional <=
  Basis Set: (CC-PVDZ AUX)
    Blend: CC-PVDZ-JKFIT
  @DF-RKS Final Energy:  -151.53511626530729
    Total Energy =                       -151.5351162653072947
    Molecular point group: c1
  Basis Set: CC-PVDZ
    Blend: CC-PVDZ
  Basis Set: (CC-PVDZ AUX)
    Blend: CC-PVDZ-JKFIT
   => B3LYP Composite Functional <=
  Basis Set: CC-PVDZ
    Blend: CC-PVDZ
   => B3LYP Composite Functional <=
  Basis Set: (CC-PVDZ AUX)
    Blend: CC-PVDZ-JKFIT
  @DF-RKS Final Energy:  -151.53821607918135
    Total Energy =                       -151.5382160791813249
  Basis Set: CC-PVDZ
    Blend: CC-PVDZ
  Basis Set: (CC-PVDZ AUX)
  @DF-RKS Final Energy:  -151.53965686625301
    Total Energy =                       -151.5396568662530115
   => B3LYP Composite Functional <=
  Basis Set: (CC-PVDZ AUX)
    Blend: CC-PVDZ-JKFIT
  @DF-RKS Final Energy:  -151.53971115102772
    Total Energy =                       -151.5397111510277455
  Basis Set: CC-PVDZ
    Blend: CC-PVDZ
  Basis Set: (CC-PVDZ AUX)
    Blend: CC-PVDZ-JKFIT
   => B3LYP Composite Functional <=
  Charge       = 0
  Multiplicity = 1
  Basis Set: CC-PVDZ
    Blend: CC-PVDZ
   => B3LYP Composite Functional <=
  Basis Set: (CC-PVDZ AUX)
    Blend: CC-PVDZ-JKFIT

    Orbital Energies (a.u.)
    -----------------------

    Doubly Occupied:

       1A    -19.190074     2A    -19.190045     3A     -1.108371
       4A     -0.893758     5A     -0.562654     6A     -0.418463
       7A     -0.404324     8A     -0.361982     9A     -0.248474

  @DF-RKS Final Energy:  -151.53971573989313

   => Energetics <=

    Nuclear Repulsion Energy =             36.5345370202268072
    One-Electron Energy =                -281.0108669975468842
    Two-Electron Energy =                 107.3943883782474558
    DFT Exchange-Correlation Energy =     -14.4574760508205031
    Empirical Dispersion Energy =          -0.0002980900000000
    PCM Polarization Energy =               0.0000000000000000
    EFP Energy =                            0.0000000000000000
    Total Energy =                       -151.5397157398930972
    Molecular point group: c1
  Basis Set: CC-PVDZ
    Blend: CC-PVDZ
  Basis Set: (CC-PVDZ AUX)
    Blend: CC-PVDZ-JKFIT
   => B3LYP Composite Functional <=

  -Total Gradient:
     Atom            X                  Y                   Z
    ------   -----------------  -----------------  -----------------
       1       -0.000034940013     0.002243941437    -0.004070635659
       2        0.000141705023    -0.001044793261     0.004527101157
       3       -0.000000076552    -0.001836473117     0.003010254093
       4       -0.000106594730     0.000638376113    -0.003466319386

  **** Optimization is complete! (in 5 steps) ****
    Final optimized geometry and variables:
    Molecular point group: c1

    Geometry (in Angstrom), charge = 0, multiplicity = 1:

    O            1.010413819771    -0.009208389152     0.043233241500
    O            2.464129698094    -0.124543431349     0.005738962513
    H            0.693917260781    -0.797414022332    -0.433239259829
    H            2.626295221354    -1.067321157167    -0.176847944185

  Mulliken Charges: (a.u.)
   Center  Symbol    Alpha    Beta     Spin     Total
       1     O     4.08099  4.08099  0.00000 -0.16198
       2     O     4.08099  4.08099  0.00000 -0.16198
       3     H     0.41901  0.41901  0.00000  0.16198
       4     H     0.41901  0.41901  0.00000  0.16198

   Total alpha =  9.00000, Total beta =  9.00000, Total charge = -0.00000

*** Psi4 exiting successfully. Buy a developer a beer!
