                               Psi4 1.1 release

  ==> Input File <==

--------------------------------------------------------------------------
set_num_threads(1)
set_memory(3145728000)

set { reference rks }
set { basis 6-31G* }

molecule MOL {
    1 1
    noreorient
    nocom
    symmetry c1
    C    0.000000   0.000000  -0.177864
    C    0.036678   1.219374   0.524165
    C    0.031764   1.213119   1.915444
    C   -0.000000  -0.000000   2.610107
    C   -0.031764  -1.213119   1.915444
    C   -0.036677  -1.219374   0.524165
    C    0.000000  -0.000000  -1.644734
    H    0.018170   2.164705  -0.010853
    H    0.042402   2.152895   2.457886
    H   -0.000000  -0.000000   3.695756
    H   -0.042402  -2.152895   2.457886
    H   -0.018170  -2.164705  -0.010853
    N   -0.712590  -0.905950  -2.308460
    N    0.712590   0.905950  -2.308461
    H    0.673432   1.006469  -3.315997
    H    1.377190   1.485970  -1.813317
    H   -1.129402  -1.682207  -1.811493
    H   -0.920620  -0.825999  -3.296943
}

set optking { frozen_dihedral = (" 1 7 13 17 ") }

set optking { dynamic_level = 1
 geom_maxiter = 250
 print_trajectory_xyz_file = True }

energy, wfn = optimize('B3LYP-D3', return_wfn=True)

import os
os.chdir(os.environ['HTMD_PSI4_WORKDIR'])

oeprop(wfn, 'DIPOLE', 'QUADRUPOLE', 'MULLIKEN_CHARGES')

with open('psi4out.xyz', 'w') as f:
    f.write('18 ' )
    f.write('%.12f\n' % energy)
    f.write(MOL.save_string_xyz())
--------------------------------------------------------------------------

    Molecular point group: c1
  Charge       = 1
  Multiplicity = 1
  Basis Set: 6-31G*
    Blend: 6-31G*
   => B3LYP Composite Functional <=
  Basis Set: (6-31G* AUX)
    Blend: CC-PVDZ-JKFIT
  @DF-RKS Final Energy:  -381.46616028172855
    Total Energy =                       -381.4661602817285484
    Molecular point group: c1
  Basis Set: 6-31G*
    Blend: 6-31G*
  Basis Set: (6-31G* AUX)
    Blend: CC-PVDZ-JKFIT
   => B3LYP Composite Functional <=
  Basis Set: 6-31G*
    Blend: 6-31G*
   => B3LYP Composite Functional <=
  Basis Set: (6-31G* AUX)
    Blend: CC-PVDZ-JKFIT
  @DF-RKS Final Energy:  -381.46809455040079
    Total Energy =                       -381.4680945504007923
  Basis Set: 6-31G*
    Blend: 6-31G*
  Basis Set: (6-31G* AUX)
  @DF-RKS Final Energy:  -381.46876382713947
    Total Energy =                       -381.4687638271394121
  @DF-RKS Final Energy:  -381.46908674779388
    Total Energy =                       -381.4690867477938809
  @DF-RKS Final Energy:  -381.46909823000726
    Total Energy =                       -381.4690982300072619
   => B3LYP Composite Functional <=
  Basis Set: (6-31G* AUX)
    Blend: CC-PVDZ-JKFIT
  @DF-RKS Final Energy:  -381.46909985192150
    Total Energy =                       -381.4690998519214986
  Basis Set: 6-31G*
    Blend: 6-31G*
  Basis Set: (6-31G* AUX)
    Blend: CC-PVDZ-JKFIT
   => B3LYP Composite Functional <=
  Charge       = 1
  Multiplicity = 1
  Basis Set: 6-31G*
    Blend: 6-31G*
   => B3LYP Composite Functional <=
  Basis Set: (6-31G* AUX)
    Blend: CC-PVDZ-JKFIT

    Orbital Energies (a.u.)
    -----------------------

    Doubly Occupied:

       1A    -14.568989     2A    -14.568324     3A    -10.498259
       4A    -10.374239     5A    -10.357246     6A    -10.356490
       7A    -10.342853     8A    -10.340950     9A    -10.340665
      10A     -1.184784    11A     -1.092944    12A     -1.014816
      13A     -0.926941    14A     -0.902762    15A     -0.846006
      16A     -0.786442    17A     -0.773372    18A     -0.742744
      19A     -0.733428    20A     -0.686381    21A     -0.669246
      22A     -0.626039    23A     -0.620114    24A     -0.587887
      25A     -0.579312    26A     -0.574255    27A     -0.518737
      28A     -0.505985    29A     -0.498728    30A     -0.473121
      31A     -0.411609    32A     -0.406076

  @DF-RKS Final Energy:  -381.46909999366795

   => Energetics <=

    Nuclear Repulsion Energy =            416.8660826884694188
    One-Electron Energy =               -1328.9035218595431616
    Two-Electron Energy =                 574.9854315934481974
    DFT Exchange-Correlation Energy =     -44.4051960660424072
    Empirical Dispersion Energy =          -0.0118963500000000
    PCM Polarization Energy =               0.0000000000000000
    EFP Energy =                            0.0000000000000000
    Total Energy =                       -381.4690999936679532
    Molecular point group: c1
  Basis Set: 6-31G*
    Blend: 6-31G*
  Basis Set: (6-31G* AUX)
    Blend: CC-PVDZ-JKFIT
   => B3LYP Composite Functional <=

  -Total Gradient:
     Atom            X                  Y                   Z
    ------   -----------------  -----------------  -----------------
       1       -0.002403234999     0.002226558201     0.000053210887
       2       -0.000011419859    -0.000003177764    -0.000009697361
       3        0.000007756584    -0.000004909252     0.000004325134
       4       -0.000007528446     0.000000696047    -0.000005352137
       5        0.000002620884     0.000003963632     0.000006042144
       6       -0.000004353206    -0.000010635066    -0.000011428648
       7        0.005112534314    -0.004493847212    -0.000334989736
       8        0.000002292745    -0.000002353347    -0.000003827189
       9       -0.000001079385     0.000000755017    -0.000003296473
      10        0.000001660702     0.000000378149    -0.000001208266
      11        0.000003869774    -0.000001047626    -0.000001824370
      12        0.000002550478     0.000000248825     0.000001540965
      13       -0.006397928407     0.005135941727     0.001027381704
      14       -0.000018181863     0.000002989709     0.000004292258
      15        0.000006113031    -0.000003515276    -0.000000332529
      16        0.000006819102    -0.000008552862     0.000000537244
      17        0.003698836317    -0.002845030624    -0.000728484686
      18        0.000000203026    -0.000004957672    -0.000013798054

  **** Optimization is complete! (in 7 steps) ****
    Final optimized geometry and variables:
    Molecular point group: c1

    Geometry (in Angstrom), charge = 1, multiplicity = 1:

    C            0.003747944867    -0.003610659518    -0.177386680905
    C            0.039713958785     1.215312412312     0.524306324781
    C            0.034107310076     1.208514969377     1.915971143937
    C            0.006703209568    -0.004041703588     2.611088254371
    C           -0.021064500228    -1.217063416777     1.916351360486
    C           -0.027477108973    -1.222221893699     0.525053415753
    C           -0.004764971205    -0.000749105366    -1.646314642117
    H            0.018070307200     2.161100574738    -0.009617615315
    H            0.041399977168     2.148660377301     2.457859068206
    H            0.006700281797    -0.003936994399     3.696700029448
    H           -0.028228543409    -2.157134961426     2.458301713932
    H           -0.005680993395    -2.170037180428    -0.006618770878
    N           -0.788275613219    -0.848670818238    -2.308841356872
    N            0.704860789443     0.907432285314    -2.308613281570
    H            0.654564668391     1.021153105133    -3.314370132812
    H            1.357451830373     1.498243513097    -1.810476749785
    H           -1.258141288812    -1.590662643588    -1.806043512777
    H           -0.733086258429    -0.958054860242    -3.315470567883

  Mulliken Charges: (a.u.)
   Center  Symbol    Alpha    Beta     Spin     Total
       1     C     2.95165  2.95165  0.00000  0.09671
       2     C     3.08152  3.08152  0.00000 -0.16303
       3     C     3.06234  3.06234  0.00000 -0.12468
       4     C     3.05164  3.05164  0.00000 -0.10328
       5     C     3.06235  3.06235  0.00000 -0.12469
       6     C     3.08450  3.08450  0.00000 -0.16900
       7     C     2.72805  2.72805  0.00000  0.54390
       8     H     0.41421  0.41421  0.00000  0.17158
       9     H     0.40532  0.40532  0.00000  0.18937
      10     H     0.40388  0.40388  0.00000  0.19224
      11     H     0.40543  0.40543  0.00000  0.18915
      12     H     0.41636  0.41636  0.00000  0.16728
      13     N     3.85781  3.85781  0.00000 -0.71562
      14     N     3.86335  3.86335  0.00000 -0.72671
      15     H     0.30527  0.30527  0.00000  0.38945
      16     H     0.29933  0.29933  0.00000  0.40134
      17     H     0.30015  0.30015  0.00000  0.39969
      18     H     0.30685  0.30685  0.00000  0.38631

   Total alpha = 32.00000, Total beta = 32.00000, Total charge =  1.00000

*** Psi4 exiting successfully. Buy a developer a beer!
