                               Psi4 1.1 release

  ==> Input File <==

--------------------------------------------------------------------------
set_num_threads(1)
set_memory(4203741184)

set { reference rks }
set { basis cc-pVDZ }

molecule MOL {
    0 1
    noreorient
    nocom
    symmetry c1
    O    1.050400   0.042900  -0.048100
    C    2.474100   0.047400  -0.029000
    C    3.002600  -1.068900  -0.932000
    N    3.838203  -0.552583  -2.014905
    H    0.760400   0.728400   0.578000
    H    2.809900  -0.097900   1.003200
    H    2.817400   1.026800  -0.378600
    H    2.163348  -1.636313  -1.350853
    H    3.581909  -1.777931  -0.329728
    H    3.266444   0.011608  -2.642808
    H    4.173837  -1.337496  -2.573038
}

set optking { frozen_dihedral = (" 1 2 3 4 ") }

energy, wfn = energy('B3LYP-D3', return_wfn=True)

import os
os.chdir(os.environ['HTMD_PSI4_WORKDIR'])

oeprop(wfn, 'DIPOLE', 'QUADRUPOLE', 'MULLIKEN_CHARGES')

with open('psi4out.xyz', 'w') as f:
    f.write('11 ' )
    f.write('%.12f\n' % energy)
    f.write(MOL.save_string_xyz())
--------------------------------------------------------------------------

    Molecular point group: c1

    Geometry (in Angstrom), charge = 0, multiplicity = 1:

       Center              X                  Y                   Z               Mass
    ------------   -----------------  -----------------  -----------------  -----------------
           O          1.050400000000     0.042900000000    -0.048100000000    15.994914619560
           C          2.474100000000     0.047400000000    -0.029000000000    12.000000000000
           C          3.002600000000    -1.068900000000    -0.932000000000    12.000000000000
           N          3.838203000000    -0.552583000000    -2.014905000000    14.003074004780
           H          0.760400000000     0.728400000000     0.578000000000     1.007825032070
           H          2.809900000000    -0.097900000000     1.003200000000     1.007825032070
           H          2.817400000000     1.026800000000    -0.378600000000     1.007825032070
           H          2.163348000000    -1.636313000000    -1.350853000000     1.007825032070
           H          3.581909000000    -1.777931000000    -0.329728000000     1.007825032070
           H          3.266444000000     0.011608000000    -2.642808000000     1.007825032070
           H          4.173837000000    -1.337496000000    -2.573038000000     1.007825032070

  Charge       = 0
  Multiplicity = 1
  Basis Set: CC-PVDZ
    Blend: CC-PVDZ
   => B3LYP Composite Functional <=
  Basis Set: (CC-PVDZ AUX)
    Blend: CC-PVDZ-JKFIT

    Orbital Energies (a.u.)
    -----------------------

    Doubly Occupied:

       1A    -19.125445     2A    -14.301656     3A    -10.222091
       4A    -10.200570     5A     -1.008524     6A     -0.874272
       7A     -0.712461     8A     -0.595739     9A     -0.509652
      10A     -0.485638    11A     -0.445140    12A     -0.414054
      13A     -0.389622    14A     -0.363165    15A     -0.324007
      16A     -0.259569    17A     -0.227523

  @DF-RKS Final Energy:  -210.38680148481808

   => Energetics <=

    Nuclear Repulsion Energy =            131.1332003752434616
    One-Electron Energy =                -545.2369920628259479
    Two-Electron Energy =                 227.2124777402480333
    DFT Exchange-Correlation Energy =     -23.4907527974836299
    Empirical Dispersion Energy =          -0.0047347400000000
    PCM Polarization Energy =               0.0000000000000000
    EFP Energy =                            0.0000000000000000
    Total Energy =                       -210.3868014848180792

  Mulliken Charges: (a.u.)
   Center  Symbol    Alpha    Beta     Spin     Total
       1     O     4.14165  4.14165  0.00000 -0.28330
       2     C     2.92863  2.92863  0.00000  0.14274
       3     C     2.98038  2.98038  0.00000  0.03925
       4     N     3.59464  3.59464  0.00000 -0.18929
       5     H     0.43165  0.43165  0.00000  0.13671
       6     H     0.50153  0.50153  0.00000 -0.00305
       7     H     0.50087  0.50087  0.00000 -0.00173
       8     H     0.49681  0.49681  0.00000  0.00638
       9     H     0.49412  0.49412  0.00000  0.01176
      10     H     0.46378  0.46378  0.00000  0.07244
      11     H     0.46595  0.46595  0.00000  0.06809

   Total alpha = 17.00000, Total beta = 17.00000, Total charge = -0.00000

*** Psi4 exiting successfully. Buy a developer a beer!
