                               Psi4 1.1 release

  ==> Input File <==

--------------------------------------------------------------------------
set {
	reference rks
	basis cc-pvdz
}

set_num_threads( 8 )
memory 2 gb

molecule MOL {
0 1

O	 1.014300	 -0.002300	 0.060500
O	 2.462400	 -0.107500	 -0.002400
H	 0.979853	 0.614888	 0.816075
H	 2.655500	 0.713700	 0.488700

	symmetry c1
}
set optking { dynamic_level = 1 }
set optking {
	frozen_dihedral = ("
		3 1 2 4
	")
}

ee,wfn = energy('b3lyp-d3', return_wfn=True)
oeprop( wfn, 'DIPOLE', 'QUADRUPOLE', 'MULLIKEN_CHARGES')
f=open( 'psi4out.xyz', 'w' )
f.write( "4  " )
f.write( str(ee) + "\n" )
f.write( MOL.save_string_xyz() )
f.close()
--------------------------------------------------------------------------

    Molecular point group: c1

    Geometry (in Angstrom), charge = 0, multiplicity = 1:

       Center              X                  Y                   Z               Mass
    ------------   -----------------  -----------------  -----------------  -----------------
           O         -0.728752020618     0.009970298495    -0.005497877154    15.994914619560
           O          0.719347979382    -0.095229701505    -0.068397877154    15.994914619560
           H         -0.763199020618     0.627158298495     0.750077122846     1.007825032070
           H          0.912447979382     0.725970298495     0.422702122846     1.007825032070

  Charge       = 0
  Multiplicity = 1
  Basis Set: CC-PVDZ
    Blend: CC-PVDZ
   => B3LYP Composite Functional <=
  Basis Set: (CC-PVDZ AUX)
    Blend: CC-PVDZ-JKFIT

    Orbital Energies (a.u.)
    -----------------------

    Doubly Occupied:

       1A    -19.191996     2A    -19.191966     3A     -1.121862
       4A     -0.887495     5A     -0.560440     6A     -0.428222
       7A     -0.411079     8A     -0.365357     9A     -0.249276

  @DF-RKS Final Energy:  -151.53511675636881

   => Energetics <=

    Nuclear Repulsion Energy =             36.8858176320810998
    One-Electron Energy =                -281.6417932490622320
    Two-Electron Energy =                 107.6840546765355100
    DFT Exchange-Correlation Energy =     -14.4630164159231640
    Empirical Dispersion Energy =          -0.0001794000000000
    PCM Polarization Energy =               0.0000000000000000
    EFP Energy =                            0.0000000000000000
    Total Energy =                       -151.5351167563687795

  Mulliken Charges: (a.u.)
   Center  Symbol    Alpha    Beta     Spin     Total
       1     O     4.07875  4.07875  0.00000 -0.15749
       2     O     4.07873  4.07873  0.00000 -0.15745
       3     H     0.42125  0.42125  0.00000  0.15749
       4     H     0.42127  0.42127  0.00000  0.15746

   Total alpha =  9.00000, Total beta =  9.00000, Total charge = -0.00000

*** Psi4 exiting successfully. Buy a developer a beer!
