                               Psi4 1.1 release

  ==> Input File <==

--------------------------------------------------------------------------
set_num_threads(1)
set_memory(4203741184)

set { reference rks }
set { basis cc-pVDZ }

molecule MOL {
    0 1
    noreorient
    nocom
    symmetry c1
    O    1.050400   0.042900  -0.048100
    C    2.474100   0.047400  -0.029000
    C    3.002600  -1.068900  -0.932000
    N    2.367388  -2.354708  -0.647920
    H    0.760400   0.728400   0.578000
    H    2.809900  -0.097900   1.003200
    H    2.817400   1.026800  -0.378600
    H    4.088754  -1.158942  -0.814100
    H    2.829233  -0.799325  -1.980012
    H    2.629529  -2.661128   0.288494
    H    2.744557  -3.055064  -1.286274
}

set optking { frozen_dihedral = (" 1 2 3 4 ") }

energy, wfn = energy('B3LYP-D3', return_wfn=True)

import os
os.chdir(os.environ['HTMD_PSI4_WORKDIR'])

oeprop(wfn, 'DIPOLE', 'QUADRUPOLE', 'MULLIKEN_CHARGES')

with open('psi4out.xyz', 'w') as f:
    f.write('11 ' )
    f.write('%.12f\n' % energy)
    f.write(MOL.save_string_xyz())
--------------------------------------------------------------------------

    Molecular point group: c1

    Geometry (in Angstrom), charge = 0, multiplicity = 1:

       Center              X                  Y                   Z               Mass
    ------------   -----------------  -----------------  -----------------  -----------------
           O          1.050400000000     0.042900000000    -0.048100000000    15.994914619560
           C          2.474100000000     0.047400000000    -0.029000000000    12.000000000000
           C          3.002600000000    -1.068900000000    -0.932000000000    12.000000000000
           N          2.367388000000    -2.354708000000    -0.647920000000    14.003074004780
           H          0.760400000000     0.728400000000     0.578000000000     1.007825032070
           H          2.809900000000    -0.097900000000     1.003200000000     1.007825032070
           H          2.817400000000     1.026800000000    -0.378600000000     1.007825032070
           H          4.088754000000    -1.158942000000    -0.814100000000     1.007825032070
           H          2.829233000000    -0.799325000000    -1.980012000000     1.007825032070
           H          2.629529000000    -2.661128000000     0.288494000000     1.007825032070
           H          2.744557000000    -3.055064000000    -1.286274000000     1.007825032070

  Charge       = 0
  Multiplicity = 1
  Basis Set: CC-PVDZ
    Blend: CC-PVDZ
   => B3LYP Composite Functional <=
  Basis Set: (CC-PVDZ AUX)
    Blend: CC-PVDZ-JKFIT

    Orbital Energies (a.u.)
    -----------------------

    Doubly Occupied:

       1A    -19.120091     2A    -14.297084     3A    -10.224347
       4A    -10.202869     5A     -1.003824     6A     -0.870323
       7A     -0.713854     8A     -0.593722     9A     -0.506040
      10A     -0.485363    11A     -0.442551    12A     -0.414446
      13A     -0.387078    14A     -0.365884    15A     -0.316954
      16A     -0.256085    17A     -0.222726

  @DF-RKS Final Energy:  -210.38726126220266

   => Energetics <=

    Nuclear Repulsion Energy =            132.9620625489224039
    One-Electron Energy =                -548.9708980805251031
    Two-Electron Energy =                 229.1117519241276455
    DFT Exchange-Correlation Energy =     -23.4852002447275900
    Empirical Dispersion Energy =          -0.0049774100000000
    PCM Polarization Energy =               0.0000000000000000
    EFP Energy =                            0.0000000000000000
    Total Energy =                       -210.3872612622026566

  Mulliken Charges: (a.u.)
   Center  Symbol    Alpha    Beta     Spin     Total
       1     O     4.13223  4.13223  0.00000 -0.26446
       2     C     2.93170  2.93170  0.00000  0.13660
       3     C     2.98198  2.98198  0.00000  0.03604
       4     N     3.58206  3.58206  0.00000 -0.16412
       5     H     0.43251  0.43251  0.00000  0.13499
       6     H     0.50497  0.50497  0.00000 -0.00994
       7     H     0.50229  0.50229  0.00000 -0.00458
       8     H     0.50694  0.50694  0.00000 -0.01388
       9     H     0.49067  0.49067  0.00000  0.01865
      10     H     0.46807  0.46807  0.00000  0.06386
      11     H     0.46657  0.46657  0.00000  0.06685

   Total alpha = 17.00000, Total beta = 17.00000, Total charge = -0.00000

*** Psi4 exiting successfully. Buy a developer a beer!
