                               Psi4 1.1 release

  ==> Input File <==

--------------------------------------------------------------------------
set_num_threads(1)
set_memory(4203741184)

set { reference rks }
set { basis cc-pVDZ }

molecule MOL {
    0 1
    noreorient
    nocom
    symmetry c1
    O    1.050400   0.042900  -0.048100
    C    2.474100   0.047400  -0.029000
    C    3.002600  -1.068900  -0.932000
    N    4.462700  -1.072400  -1.006800
    H    0.780501   0.495758  -0.865465
    H    2.809900  -0.097900   1.003200
    H    2.817400   1.026800  -0.378600
    H    2.581000  -0.963300  -1.938400
    H    2.653800  -2.036400  -0.553400
    H    4.779000  -0.221000  -1.470000
    H    4.758600  -1.842500  -1.606500
}

set optking { frozen_dihedral = (" 3 2 1 5 ") }

energy, wfn = energy('B3LYP-D3', return_wfn=True)

import os
os.chdir(os.environ['HTMD_PSI4_WORKDIR'])

oeprop(wfn, 'DIPOLE', 'QUADRUPOLE', 'MULLIKEN_CHARGES')

with open('psi4out.xyz', 'w') as f:
    f.write('11 ' )
    f.write('%.12f\n' % energy)
    f.write(MOL.save_string_xyz())
--------------------------------------------------------------------------

    Molecular point group: c1

    Geometry (in Angstrom), charge = 0, multiplicity = 1:

       Center              X                  Y                   Z               Mass
    ------------   -----------------  -----------------  -----------------  -----------------
           O          1.050400000000     0.042900000000    -0.048100000000    15.994914619560
           C          2.474100000000     0.047400000000    -0.029000000000    12.000000000000
           C          3.002600000000    -1.068900000000    -0.932000000000    12.000000000000
           N          4.462700000000    -1.072400000000    -1.006800000000    14.003074004780
           H          0.780501000000     0.495758000000    -0.865465000000     1.007825032070
           H          2.809900000000    -0.097900000000     1.003200000000     1.007825032070
           H          2.817400000000     1.026800000000    -0.378600000000     1.007825032070
           H          2.581000000000    -0.963300000000    -1.938400000000     1.007825032070
           H          2.653800000000    -2.036400000000    -0.553400000000     1.007825032070
           H          4.779000000000    -0.221000000000    -1.470000000000     1.007825032070
           H          4.758600000000    -1.842500000000    -1.606500000000     1.007825032070

  Charge       = 0
  Multiplicity = 1
  Basis Set: CC-PVDZ
    Blend: CC-PVDZ
   => B3LYP Composite Functional <=
  Basis Set: (CC-PVDZ AUX)
    Blend: CC-PVDZ-JKFIT

    Orbital Energies (a.u.)
    -----------------------

    Doubly Occupied:

       1A    -19.129742     2A    -14.305837     3A    -10.224964
       4A    -10.201742     5A     -1.012097     6A     -0.877892
       7A     -0.711107     8A     -0.606069     9A     -0.513461
      10A     -0.468402    11A     -0.461371    12A     -0.419284
      13A     -0.394439    14A     -0.365443    15A     -0.322537
      16A     -0.265155    17A     -0.232982

  @DF-RKS Final Energy:  -210.39212102868754

   => Energetics <=

    Nuclear Repulsion Energy =            130.7539854112974069
    One-Electron Energy =                -544.3851137072566644
    Two-Electron Energy =                 226.7302263582946580
    DFT Exchange-Correlation Energy =     -23.4860831310229941
    Empirical Dispersion Energy =          -0.0051359600000000
    PCM Polarization Energy =               0.0000000000000000
    EFP Energy =                            0.0000000000000000
    Total Energy =                       -210.3921210286875692

  Mulliken Charges: (a.u.)
   Center  Symbol    Alpha    Beta     Spin     Total
       1     O     4.13931  4.13931  0.00000 -0.27862
       2     C     2.92456  2.92456  0.00000  0.15089
       3     C     2.98892  2.98892  0.00000  0.02216
       4     N     3.59296  3.59296  0.00000 -0.18592
       5     H     0.43151  0.43151  0.00000  0.13698
       6     H     0.48657  0.48657  0.00000  0.02685
       7     H     0.50394  0.50394  0.00000 -0.00787
       8     H     0.51172  0.51172  0.00000 -0.02343
       9     H     0.48960  0.48960  0.00000  0.02080
      10     H     0.46675  0.46675  0.00000  0.06651
      11     H     0.46417  0.46417  0.00000  0.07165

   Total alpha = 17.00000, Total beta = 17.00000, Total charge =  0.00000

*** Psi4 exiting successfully. Buy a developer a beer!
