                               Psi4 1.1 release

  ==> Input File <==

--------------------------------------------------------------------------
set {
	reference rks
	basis 6-31G*
}

set_num_threads( 8 )
memory 2 gb

molecule MOL {
1 1

C	 1.414097	 0.205268	 -1.990018
C	 2.340000	 0.491797	 -0.969397
C	 3.680724	 0.680881	 -1.289442
C	 4.101769	 0.595406	 -2.620096
C	 3.183471	 0.315515	 -3.636764
C	 1.841742	 0.115217	 -3.327955
C	 -0.000000	 -0.000000	 -1.658508
H	 2.025065	 0.516794	 0.070040
H	 4.398546	 0.884588	 -0.501553
H	 5.148361	 0.747328	 -2.865451
H	 3.511504	 0.263624	 -4.669835
H	 1.125136	 -0.059516	 -4.125566
N	 -0.712589	 -0.905950	 -2.322235
N	 -0.567109	 0.720192	 -0.694779
H	 -1.510946	 0.553290	 -0.366020
H	 -0.077368	 1.514715	 -0.304687
H	 -1.377189	 -1.485970	 -1.827091
H	 -0.673431	 -1.006470	 -3.329771

	symmetry c1
}
set optking { dynamic_level = 1 }
set optking {
	frozen_dihedral = ("
		1 7 13 17
	")
}

ee,wfn = optimize('b3lyp-d3', return_wfn=True)
oeprop( wfn, 'DIPOLE', 'QUADRUPOLE', 'MULLIKEN_CHARGES')
f=open( 'psi4out.xyz', 'w' )
f.write( "18  " )
f.write( str(ee) + "\n" )
f.write( MOL.save_string_xyz() )
f.close()
--------------------------------------------------------------------------

    Molecular point group: c1
  Charge       = 1
  Multiplicity = 1
  Basis Set: 6-31G*
    Blend: 6-31G*
   => B3LYP Composite Functional <=
  Basis Set: (6-31G* AUX)
    Blend: CC-PVDZ-JKFIT
  @DF-RKS Final Energy:  -381.44723078873540
    Total Energy =                       -381.4472307887354532
    Molecular point group: c1
  Basis Set: 6-31G*
    Blend: 6-31G*
  Basis Set: (6-31G* AUX)
    Blend: CC-PVDZ-JKFIT
   => B3LYP Composite Functional <=
  Basis Set: 6-31G*
    Blend: 6-31G*
   => B3LYP Composite Functional <=
  Basis Set: (6-31G* AUX)
    Blend: CC-PVDZ-JKFIT
  @DF-RKS Final Energy:  -381.45510732091600
    Total Energy =                       -381.4551073209160563
  Basis Set: 6-31G*
    Blend: 6-31G*
  Basis Set: (6-31G* AUX)
  @DF-RKS Final Energy:  -381.45877081179054
    Total Energy =                       -381.4587708117904867
  @DF-RKS Final Energy:  -381.46110044789503
    Total Energy =                       -381.4611004478950349
  @DF-RKS Final Energy:  -381.46246700777976
    Total Energy =                       -381.4624670077797646
  @DF-RKS Final Energy:  -381.46253258935923
    Total Energy =                       -381.4625325893592276
   => B3LYP Composite Functional <=
  Basis Set: (6-31G* AUX)
    Blend: CC-PVDZ-JKFIT
  @DF-RKS Final Energy:  -381.46254209438615
    Total Energy =                       -381.4625420943861513
  Basis Set: 6-31G*
    Blend: 6-31G*
  Basis Set: (6-31G* AUX)
    Blend: CC-PVDZ-JKFIT
   => B3LYP Composite Functional <=
  Charge       = 1
  Multiplicity = 1
  Basis Set: 6-31G*
    Blend: 6-31G*
   => B3LYP Composite Functional <=
  Basis Set: (6-31G* AUX)
    Blend: CC-PVDZ-JKFIT

    Orbital Energies (a.u.)
    -----------------------

    Doubly Occupied:

       1A    -14.573740     2A    -14.561690     3A    -10.501017
       4A    -10.377483     5A    -10.359922     6A    -10.358695
       7A    -10.345010     8A    -10.343034     9A    -10.342792
      10A     -1.185612    11A     -1.093310    12A     -1.017063
      13A     -0.928668    14A     -0.905046    15A     -0.845675
      16A     -0.785933    17A     -0.775525    18A     -0.739402
      19A     -0.732667    20A     -0.679585    21A     -0.670406
      22A     -0.632053    23A     -0.614598    24A     -0.595454
      25A     -0.579658    26A     -0.576665    27A     -0.518968
      28A     -0.509611    29A     -0.500937    30A     -0.475226
      31A     -0.412624    32A     -0.408215

  @DF-RKS Final Energy:  -381.46254268130917

   => Energetics <=

    Nuclear Repulsion Energy =            416.7196801994416546
    One-Electron Energy =               -1328.5270445929263587
    Two-Electron Energy =                 574.7582327305285617
    DFT Exchange-Correlation Energy =     -44.4015688483530298
    Empirical Dispersion Energy =          -0.0118421700000000
    PCM Polarization Energy =               0.0000000000000000
    EFP Energy =                            0.0000000000000000
    Total Energy =                       -381.4625426813091735
    Molecular point group: c1
  Basis Set: 6-31G*
    Blend: 6-31G*
  Basis Set: (6-31G* AUX)
    Blend: CC-PVDZ-JKFIT
   => B3LYP Composite Functional <=

  -Total Gradient:
     Atom            X                  Y                   Z
    ------   -----------------  -----------------  -----------------
       1        0.001920265151    -0.005833566266     0.005277176336
       2       -0.000008345087     0.000033350088    -0.000048246614
       3       -0.000000444024    -0.000003704062     0.000024616293
       4        0.000004259668    -0.000016890057    -0.000009760979
       5        0.000005356834    -0.000002946283    -0.000001709762
       6       -0.000005362044     0.000015667504    -0.000005526004
       7        0.000030757349     0.006021014667    -0.007444611185
       8        0.000013391235    -0.000008296190     0.000004693231
       9       -0.000001258350     0.000000402712    -0.000001808704
      10       -0.000001392779     0.000008675023     0.000002800498
      11       -0.000003175945    -0.000006484036     0.000000552854
      12        0.000010394813    -0.000002090701    -0.000007858366
      13       -0.009991609700     0.007910671592     0.000698310174
      14       -0.000020685107     0.000049583022    -0.000055536387
      15        0.000008816931     0.000002359883     0.000007071957
      16       -0.000013993871     0.000001685067     0.000008427339
      17        0.008050291258    -0.008169877913     0.001540516172
      18       -0.000016189205    -0.000003058114     0.000012904291

  **** Optimization is complete! (in 8 steps) ****
    Final optimized geometry and variables:
    Molecular point group: c1

    Geometry (in Angstrom), charge = 1, multiplicity = 1:

    C           -0.190150831427    -0.000485910925     0.031294450044
    C            0.738659522441     0.250308259084     1.058880915594
    C            2.087237459828     0.396151253414     0.747788956331
    C            2.514289837142     0.315646648998    -0.580616117522
    C            1.592611361518     0.079603942726    -1.605461790388
    C            0.244497966652    -0.084212938998    -1.305540033298
    C           -1.608861904705    -0.187468887085     0.357945007337
    H            0.426419793894     0.270787657568     2.099072612803
    H            2.805686349618     0.564488984715     1.543431019213
    H            3.566759901166     0.436278293999    -0.817745505757
    H            1.923431271385     0.032122142521    -2.637814345418
    H           -0.469098901703    -0.224213810616    -2.113360347311
    N           -2.364673537145    -1.061782539682    -0.332517935191
    N           -2.143726650128     0.449522369763     1.390422741424
    H           -3.113082928863     0.324606962946     1.659949533999
    H           -1.628732445720     1.182332583197     1.861132704819
    H           -3.041784590511    -1.635128299455     0.161909180949
    H           -1.866606289958    -1.607126389924    -1.027694315740

  Mulliken Charges: (a.u.)
   Center  Symbol    Alpha    Beta     Spin     Total
       1     C     2.94945  2.94945  0.00000  0.10110
       2     C     3.08355  3.08355  0.00000 -0.16710
       3     C     3.06225  3.06225  0.00000 -0.12451
       4     C     3.05149  3.05149  0.00000 -0.10297
       5     C     3.06218  3.06218  0.00000 -0.12436
       6     C     3.08661  3.08661  0.00000 -0.17323
       7     C     2.73993  2.73993  0.00000  0.52013
       8     H     0.41552  0.41552  0.00000  0.16896
       9     H     0.40494  0.40494  0.00000  0.19012
      10     H     0.40331  0.40331  0.00000  0.19338
      11     H     0.40461  0.40461  0.00000  0.19078
      12     H     0.41134  0.41134  0.00000  0.17732
      13     N     3.85660  3.85660  0.00000 -0.71320
      14     N     3.85602  3.85602  0.00000 -0.71205
      15     H     0.30255  0.30255  0.00000  0.39490
      16     H     0.29863  0.29863  0.00000  0.40274
      17     H     0.30546  0.30546  0.00000  0.38907
      18     H     0.30555  0.30555  0.00000  0.38891

   Total alpha = 32.00000, Total beta = 32.00000, Total charge =  1.00000

*** Psi4 exiting successfully. Buy a developer a beer!
