                               Psi4 1.1 release

  ==> Input File <==

--------------------------------------------------------------------------
set_num_threads(1)
set_memory(4203741184)

set { reference rks }
set { basis cc-pVDZ }

molecule MOL {
    0 1
    noreorient
    nocom
    symmetry c1
    O    1.050400   0.042900  -0.048100
    C    2.474100   0.047400  -0.029000
    C    3.002600  -1.068900  -0.932000
    N    3.424834  -0.567230  -2.238731
    H    0.760400   0.728400   0.578000
    H    2.809900  -0.097900   1.003200
    H    2.817400   1.026800  -0.378600
    H    2.231713  -1.837328  -1.062343
    H    3.847932  -1.563003  -0.439728
    H    2.612009  -0.216166  -2.744253
    H    3.780599  -1.347790  -2.790462
}

set optking { frozen_dihedral = (" 1 2 3 4 ") }

energy, wfn = energy('B3LYP-D3', return_wfn=True)

import os
os.chdir(os.environ['HTMD_PSI4_WORKDIR'])

oeprop(wfn, 'DIPOLE', 'QUADRUPOLE', 'MULLIKEN_CHARGES')

with open('psi4out.xyz', 'w') as f:
    f.write('11 ' )
    f.write('%.12f\n' % energy)
    f.write(MOL.save_string_xyz())
--------------------------------------------------------------------------

    Molecular point group: c1

    Geometry (in Angstrom), charge = 0, multiplicity = 1:

       Center              X                  Y                   Z               Mass
    ------------   -----------------  -----------------  -----------------  -----------------
           O          1.050400000000     0.042900000000    -0.048100000000    15.994914619560
           C          2.474100000000     0.047400000000    -0.029000000000    12.000000000000
           C          3.002600000000    -1.068900000000    -0.932000000000    12.000000000000
           N          3.424834000000    -0.567230000000    -2.238731000000    14.003074004780
           H          0.760400000000     0.728400000000     0.578000000000     1.007825032070
           H          2.809900000000    -0.097900000000     1.003200000000     1.007825032070
           H          2.817400000000     1.026800000000    -0.378600000000     1.007825032070
           H          2.231713000000    -1.837328000000    -1.062343000000     1.007825032070
           H          3.847932000000    -1.563003000000    -0.439728000000     1.007825032070
           H          2.612009000000    -0.216166000000    -2.744253000000     1.007825032070
           H          3.780599000000    -1.347790000000    -2.790462000000     1.007825032070

  Charge       = 0
  Multiplicity = 1
  Basis Set: CC-PVDZ
    Blend: CC-PVDZ
   => B3LYP Composite Functional <=
  Basis Set: (CC-PVDZ AUX)
    Blend: CC-PVDZ-JKFIT

    Orbital Energies (a.u.)
    -----------------------

    Doubly Occupied:

       1A    -19.125532     2A    -14.300241     3A    -10.221790
       4A    -10.201120     5A     -1.008692     6A     -0.872970
       7A     -0.712795     8A     -0.594985     9A     -0.511099
      10A     -0.481674    11A     -0.450254    12A     -0.407635
      13A     -0.391637    14A     -0.363732    15A     -0.324219
      16A     -0.260147    17A     -0.226965

  @DF-RKS Final Energy:  -210.38902049884399

   => Energetics <=

    Nuclear Repulsion Energy =            131.6228392865100716
    One-Electron Energy =                -546.2287894455926107
    Two-Electron Energy =                 227.7111199307210541
    DFT Exchange-Correlation Energy =     -23.4893619404824605
    Empirical Dispersion Energy =          -0.0048283300000000
    PCM Polarization Energy =               0.0000000000000000
    EFP Energy =                            0.0000000000000000
    Total Energy =                       -210.3890204988439905

  Mulliken Charges: (a.u.)
   Center  Symbol    Alpha    Beta     Spin     Total
       1     O     4.14188  4.14188  0.00000 -0.28377
       2     C     2.92951  2.92951  0.00000  0.14098
       3     C     2.97847  2.97847  0.00000  0.04307
       4     N     3.59301  3.59301  0.00000 -0.18603
       5     H     0.43153  0.43153  0.00000  0.13693
       6     H     0.50345  0.50345  0.00000 -0.00691
       7     H     0.49948  0.49948  0.00000  0.00103
       8     H     0.49761  0.49761  0.00000  0.00478
       9     H     0.49551  0.49551  0.00000  0.00899
      10     H     0.46296  0.46296  0.00000  0.07407
      11     H     0.46657  0.46657  0.00000  0.06686

   Total alpha = 17.00000, Total beta = 17.00000, Total charge =  0.00000

*** Psi4 exiting successfully. Buy a developer a beer!
