                               Psi4 1.1 release

  ==> Input File <==

--------------------------------------------------------------------------
set_num_threads(1)
set_memory(4203741184)

set { reference rks }
set { basis cc-pVDZ }

molecule MOL {
    0 1
    noreorient
    nocom
    symmetry c1
    O    1.141000   0.017000   0.083000
    C    2.558000   0.086000  -0.005000
    C    3.192000  -0.789000   1.067000
    O    4.610000  -0.719000   0.979000
    H    0.838495   0.883083   0.406780
    H    2.874000   1.128000   0.115000
    H    2.871000  -0.243000  -1.001000
    H    2.876000  -1.830000   0.947000
    H    2.879000  -0.459000   2.064000
    H    4.961000  -1.293000   1.682000
}

set optking { frozen_dihedral = (" 3 2 1 5 ") }

energy, wfn = energy('B3LYP-D3', return_wfn=True)

import os
os.chdir(os.environ['HTMD_PSI4_WORKDIR'])

oeprop(wfn, 'DIPOLE', 'QUADRUPOLE', 'MULLIKEN_CHARGES')

with open('psi4out.xyz', 'w') as f:
    f.write('10 ' )
    f.write('%.12f\n' % energy)
    f.write(MOL.save_string_xyz())
--------------------------------------------------------------------------

    Molecular point group: c1

    Geometry (in Angstrom), charge = 0, multiplicity = 1:

       Center              X                  Y                   Z               Mass
    ------------   -----------------  -----------------  -----------------  -----------------
           O          1.141000000000     0.017000000000     0.083000000000    15.994914619560
           C          2.558000000000     0.086000000000    -0.005000000000    12.000000000000
           C          3.192000000000    -0.789000000000     1.067000000000    12.000000000000
           O          4.610000000000    -0.719000000000     0.979000000000    15.994914619560
           H          0.838495000000     0.883083000000     0.406780000000     1.007825032070
           H          2.874000000000     1.128000000000     0.115000000000     1.007825032070
           H          2.871000000000    -0.243000000000    -1.001000000000     1.007825032070
           H          2.876000000000    -1.830000000000     0.947000000000     1.007825032070
           H          2.879000000000    -0.459000000000     2.064000000000     1.007825032070
           H          4.961000000000    -1.293000000000     1.682000000000     1.007825032070

  Charge       = 0
  Multiplicity = 1
  Basis Set: CC-PVDZ
    Blend: CC-PVDZ
   => B3LYP Composite Functional <=
  Basis Set: (CC-PVDZ AUX)
    Blend: CC-PVDZ-JKFIT

    Orbital Energies (a.u.)
    -----------------------

    Doubly Occupied:

       1A    -19.133967     2A    -19.130589     3A    -10.226860
       4A    -10.223732     5A     -1.019919     6A     -1.008796
       7A     -0.730820     8A     -0.607992     9A     -0.524927
      10A     -0.492291    11A     -0.454830    12A     -0.423227
      13A     -0.396389    14A     -0.338754    15A     -0.324526
      16A     -0.268973    17A     -0.263540

  @DF-RKS Final Energy:  -230.25725434968228

   => Energetics <=

    Nuclear Repulsion Energy =            129.6102836256546027
    One-Electron Energy =                -570.9618039969914207
    Two-Electron Energy =                 235.6377811738430808
    DFT Exchange-Correlation Energy =     -24.5390334821885361
    Empirical Dispersion Energy =          -0.0044816700000000
    PCM Polarization Energy =               0.0000000000000000
    EFP Energy =                            0.0000000000000000
    Total Energy =                       -230.2572543496822846

  Mulliken Charges: (a.u.)
   Center  Symbol    Alpha    Beta     Spin     Total
       1     O     4.13964  4.13964  0.00000 -0.27927
       2     C     2.93675  2.93675  0.00000  0.12650
       3     C     2.93592  2.93592  0.00000  0.12816
       4     O     4.14126  4.14126  0.00000 -0.28252
       5     H     0.42788  0.42788  0.00000  0.14424
       6     H     0.49728  0.49728  0.00000  0.00543
       7     H     0.49018  0.49018  0.00000  0.01964
       8     H     0.49781  0.49781  0.00000  0.00437
       9     H     0.50526  0.50526  0.00000 -0.01051
      10     H     0.42802  0.42802  0.00000  0.14395

   Total alpha = 17.00000, Total beta = 17.00000, Total charge = -0.00000

*** Psi4 exiting successfully. Buy a developer a beer!
