                               Psi4 1.1 release

  ==> Input File <==

--------------------------------------------------------------------------
set_num_threads(1)
set_memory(4203741184)

set { reference rks }
set { basis cc-pVDZ }

molecule MOL {
    0 1
    noreorient
    nocom
    symmetry c1
    O    1.141000   0.017000   0.083000
    C    2.558000   0.086000  -0.005000
    C    3.192000  -0.789000   1.067000
    O    3.182687  -2.150385   0.654797
    H    0.789000   0.590000  -0.620000
    H    2.874000   1.128000   0.115000
    H    2.871000  -0.243000  -1.001000
    H    2.644093  -0.695833   2.009897
    H    4.226625  -0.478354   1.251193
    H    3.596459  -2.661110   1.372320
}

set optking { frozen_dihedral = (" 1 2 3 4 ") }

energy, wfn = energy('B3LYP-D3', return_wfn=True)

import os
os.chdir(os.environ['HTMD_PSI4_WORKDIR'])

oeprop(wfn, 'DIPOLE', 'QUADRUPOLE', 'MULLIKEN_CHARGES')

with open('psi4out.xyz', 'w') as f:
    f.write('10 ' )
    f.write('%.12f\n' % energy)
    f.write(MOL.save_string_xyz())
--------------------------------------------------------------------------

    Molecular point group: c1

    Geometry (in Angstrom), charge = 0, multiplicity = 1:

       Center              X                  Y                   Z               Mass
    ------------   -----------------  -----------------  -----------------  -----------------
           O          1.141000000000     0.017000000000     0.083000000000    15.994914619560
           C          2.558000000000     0.086000000000    -0.005000000000    12.000000000000
           C          3.192000000000    -0.789000000000     1.067000000000    12.000000000000
           O          3.182687000000    -2.150385000000     0.654797000000    15.994914619560
           H          0.789000000000     0.590000000000    -0.620000000000     1.007825032070
           H          2.874000000000     1.128000000000     0.115000000000     1.007825032070
           H          2.871000000000    -0.243000000000    -1.001000000000     1.007825032070
           H          2.644093000000    -0.695833000000     2.009897000000     1.007825032070
           H          4.226625000000    -0.478354000000     1.251193000000     1.007825032070
           H          3.596459000000    -2.661110000000     1.372320000000     1.007825032070

  Charge       = 0
  Multiplicity = 1
  Basis Set: CC-PVDZ
    Blend: CC-PVDZ
   => B3LYP Composite Functional <=
  Basis Set: (CC-PVDZ AUX)
    Blend: CC-PVDZ-JKFIT

    Orbital Energies (a.u.)
    -----------------------

    Doubly Occupied:

       1A    -19.125779     2A    -19.125730     3A    -10.226921
       4A    -10.226724     5A     -1.016529     6A     -1.001110
       7A     -0.733520     8A     -0.602813     9A     -0.515685
      10A     -0.509453    11A     -0.428006    12A     -0.420786
      13A     -0.407452    14A     -0.343212    15A     -0.318119
      16A     -0.265969    17A     -0.254925

  @DF-RKS Final Energy:  -230.25629181254860

   => Energetics <=

    Nuclear Repulsion Energy =            131.1493151300584543
    One-Electron Energy =                -574.1340169910411078
    Two-Electron Energy =                 237.2703688765571712
    DFT Exchange-Correlation Energy =     -24.5376041681230888
    Empirical Dispersion Energy =          -0.0043546600000000
    PCM Polarization Energy =               0.0000000000000000
    EFP Energy =                            0.0000000000000000
    Total Energy =                       -230.2562918125485965

  Mulliken Charges: (a.u.)
   Center  Symbol    Alpha    Beta     Spin     Total
       1     O     4.13700  4.13700  0.00000 -0.27400
       2     C     2.93143  2.93143  0.00000  0.13714
       3     C     2.93158  2.93158  0.00000  0.13684
       4     O     4.13722  4.13722  0.00000 -0.27443
       5     H     0.43092  0.43092  0.00000  0.13816
       6     H     0.50419  0.50419  0.00000 -0.00839
       7     H     0.49640  0.49640  0.00000  0.00720
       8     H     0.49631  0.49631  0.00000  0.00738
       9     H     0.50409  0.50409  0.00000 -0.00818
      10     H     0.43086  0.43086  0.00000  0.13827

   Total alpha = 17.00000, Total beta = 17.00000, Total charge = -0.00000

*** Psi4 exiting successfully. Buy a developer a beer!
