                               Psi4 1.1 release

  ==> Input File <==

--------------------------------------------------------------------------
set_num_threads(1)
set_memory(3145728000)

set { reference rks }
set { basis 6-31G* }

molecule MOL {
    1 1
    noreorient
    nocom
    symmetry c1
    C    0.000000   0.000000  -0.177864
    C    0.036678   1.219374   0.524165
    C    0.031764   1.213119   1.915444
    C   -0.000000  -0.000000   2.610107
    C   -0.031764  -1.213119   1.915444
    C   -0.036677  -1.219374   0.524165
    C    0.000000  -0.000000  -1.644734
    H    0.018170   2.164705  -0.010853
    H    0.042402   2.152895   2.457886
    H   -0.000000  -0.000000   3.695756
    H   -0.042402  -2.152895   2.457886
    H   -0.018170  -2.164705  -0.010853
    N    0.165932  -1.140612  -2.308460
    N   -0.165932   1.140612  -2.308461
    H   -0.265776   1.181463  -3.315997
    H   -0.128638   2.021932  -1.813317
    H    0.128638  -2.021932  -1.813316
    H    0.265776  -1.181463  -3.315997
}

set optking { frozen_dihedral = (" 2 1 7 13 ") }

set optking { dynamic_level = 1
 geom_maxiter = 250
 print_trajectory_xyz_file = True }

energy, wfn = optimize('B3LYP-D3', return_wfn=True)

import os
os.chdir(os.environ['HTMD_PSI4_WORKDIR'])

oeprop(wfn, 'DIPOLE', 'QUADRUPOLE', 'MULLIKEN_CHARGES')

with open('psi4out.xyz', 'w') as f:
    f.write('18 ' )
    f.write('%.12f\n' % energy)
    f.write(MOL.save_string_xyz())
--------------------------------------------------------------------------

    Molecular point group: c1
  Charge       = 1
  Multiplicity = 1
  Basis Set: 6-31G*
    Blend: 6-31G*
   => B3LYP Composite Functional <=
  Basis Set: (6-31G* AUX)
    Blend: CC-PVDZ-JKFIT
  @DF-RKS Final Energy:  -381.46304779167872
    Total Energy =                       -381.4630477916787754
    Molecular point group: c1
  Basis Set: 6-31G*
    Blend: 6-31G*
  Basis Set: (6-31G* AUX)
    Blend: CC-PVDZ-JKFIT
   => B3LYP Composite Functional <=
  Basis Set: 6-31G*
    Blend: 6-31G*
   => B3LYP Composite Functional <=
  Basis Set: (6-31G* AUX)
    Blend: CC-PVDZ-JKFIT
  @DF-RKS Final Energy:  -381.46517449728799
    Total Energy =                       -381.4651744972880465
  Basis Set: 6-31G*
    Blend: 6-31G*
  Basis Set: (6-31G* AUX)
  @DF-RKS Final Energy:  -381.46601940856624
    Total Energy =                       -381.4660194085662965
  @DF-RKS Final Energy:  -381.46517449728839
    Total Energy =                       -381.4651744972883307
  @DF-RKS Final Energy:  -381.46613378651978
    Total Energy =                       -381.4661337865197197
  @DF-RKS Final Energy:  -381.46681045513384
    Total Energy =                       -381.4668104551338388
  @DF-RKS Final Energy:  -381.46727629586957
    Total Energy =                       -381.4672762958696239
  @DF-RKS Final Energy:  -381.46747365329026
    Total Energy =                       -381.4674736532902557
  @DF-RKS Final Energy:  -381.46751979233073
    Total Energy =                       -381.4675197923307337
  @DF-RKS Final Energy:  -381.46752407106715
    Total Energy =                       -381.4675240710670892
   => B3LYP Composite Functional <=
  Basis Set: (6-31G* AUX)
    Blend: CC-PVDZ-JKFIT
  @DF-RKS Final Energy:  -381.46752646790253
    Total Energy =                       -381.4675264679025304
  Basis Set: 6-31G*
    Blend: 6-31G*
  Basis Set: (6-31G* AUX)
    Blend: CC-PVDZ-JKFIT
   => B3LYP Composite Functional <=
  Charge       = 1
  Multiplicity = 1
  Basis Set: 6-31G*
    Blend: 6-31G*
   => B3LYP Composite Functional <=
  Basis Set: (6-31G* AUX)
    Blend: CC-PVDZ-JKFIT

    Orbital Energies (a.u.)
    -----------------------

    Doubly Occupied:

       1A    -14.565688     2A    -14.565357     3A    -10.497758
       4A    -10.376783     5A    -10.360045     6A    -10.359959
       7A    -10.346233     8A    -10.342686     9A    -10.342534
      10A     -1.183029    11A     -1.089393    12A     -1.016667
      13A     -0.928540    14A     -0.905254    15A     -0.847490
      16A     -0.786151    17A     -0.776126    18A     -0.737589
      19A     -0.736323    20A     -0.688135    21A     -0.669386
      22A     -0.630704    23A     -0.611320    24A     -0.597564
      25A     -0.581751    26A     -0.576315    27A     -0.518394
      28A     -0.509151    29A     -0.500640    30A     -0.471439
      31A     -0.413455    32A     -0.407829

  @DF-RKS Final Energy:  -381.46752678711624

   => Energetics <=

    Nuclear Repulsion Energy =            416.7441625022063363
    One-Electron Energy =               -1328.5957898003930495
    Two-Electron Energy =                 574.8029213758518381
    DFT Exchange-Correlation Energy =     -44.4072344047813772
    Empirical Dispersion Energy =          -0.0115864600000000
    PCM Polarization Energy =               0.0000000000000000
    EFP Energy =                            0.0000000000000000
    Total Energy =                       -381.4675267871162418
    Molecular point group: c1
  Basis Set: 6-31G*
    Blend: 6-31G*
  Basis Set: (6-31G* AUX)
    Blend: CC-PVDZ-JKFIT
   => B3LYP Composite Functional <=

  -Total Gradient:
     Atom            X                  Y                   Z
    ------   -----------------  -----------------  -----------------
       1        0.004901359055    -0.000506564534    -0.000128182982
       2       -0.004873645431     0.000113933627     0.000141946096
       3       -0.000012120138    -0.000000998371    -0.000009302547
       4       -0.000001667674     0.000000405696    -0.000017624834
       5        0.000002467097     0.000006278638    -0.000006997651
       6        0.000000572877    -0.000032293535     0.000014945553
       7        0.005073401502     0.001236013948    -0.000076726669
       8        0.000001512227    -0.000014008355    -0.000004263521
       9        0.000003721377    -0.000003248437     0.000006783580
      10        0.000002664792     0.000000735018     0.000001739982
      11       -0.000005355422     0.000003880612     0.000004808003
      12        0.000009572399     0.000014984226    -0.000018379311
      13       -0.005088025263    -0.000860846525     0.000122002143
      14       -0.000022686061     0.000041416314    -0.000046108587
      15        0.000016292616    -0.000013501175     0.000004423306
      16        0.000008528955    -0.000014329698     0.000005933113
      17       -0.000003768847     0.000014260435    -0.000004540043
      18       -0.000009897857     0.000016902709     0.000003183549

  **** Optimization is complete! (in 9 steps) ****
    Final optimized geometry and variables:
    Molecular point group: c1

    Geometry (in Angstrom), charge = 1, multiplicity = 1:

    C            0.071517046902    -0.000088698812    -0.176031089504
    C            0.106075165197     1.214286130845     0.538849061216
    C            0.061415149681     1.212519649295     1.927905219681
    C           -0.028814648843     0.003769802046     2.624170229596
    C           -0.080838517220    -1.205818761425     1.926145889767
    C           -0.042472279803    -1.210922046684     0.536538682299
    C            0.038075278438    -0.000043721449    -1.643962681701
    H            0.233611022209     2.164134064606     0.027853704855
    H            0.105182589647     2.152695561719     2.467741672438
    H           -0.063638407251     0.005044410837     3.709214238885
    H           -0.169519960957    -2.144044504553     2.463893147290
    H           -0.149406687271    -2.160329155116     0.021124010992
    N            0.204493586752    -1.131381505409    -2.329488419498
    N           -0.228539265235     1.117439658224    -2.318388458777
    H           -0.210964855225     1.155834665446    -3.330089381448
    H           -0.555397438115     1.945707992634    -1.841659016441
    H            0.594705015939    -1.950727954796    -1.885327619406
    H            0.114518205155    -1.168075587410    -3.337488190242

  Mulliken Charges: (a.u.)
   Center  Symbol    Alpha    Beta     Spin     Total
       1     C     2.93438  2.93438  0.00000  0.13125
       2     C     3.08872  3.08872  0.00000 -0.17743
       3     C     3.06166  3.06166  0.00000 -0.12332
       4     C     3.05128  3.05128  0.00000 -0.10255
       5     C     3.06108  3.06108  0.00000 -0.12216
       6     C     3.08492  3.08492  0.00000 -0.16984
       7     C     2.70847  2.70847  0.00000  0.58306
       8     H     0.41809  0.41809  0.00000  0.16381
       9     H     0.40500  0.40500  0.00000  0.19001
      10     H     0.40281  0.40281  0.00000  0.19437
      11     H     0.40497  0.40497  0.00000  0.19006
      12     H     0.41898  0.41898  0.00000  0.16204
      13     N     3.87293  3.87293  0.00000 -0.74586
      14     N     3.87289  3.87289  0.00000 -0.74578
      15     H     0.30596  0.30596  0.00000  0.38809
      16     H     0.30070  0.30070  0.00000  0.39860
      17     H     0.30109  0.30109  0.00000  0.39781
      18     H     0.30607  0.30607  0.00000  0.38785

   Total alpha = 32.00000, Total beta = 32.00000, Total charge =  1.00000

*** Psi4 exiting successfully. Buy a developer a beer!
