                               Psi4 1.1 release

  ==> Input File <==

--------------------------------------------------------------------------
set {
	reference rks
	basis 6-31G*
}

set_num_threads( 8 )
memory 2 gb

molecule MOL {
1 1

C	 -0.000000	 -0.000000	 -0.191639
C	 1.075252	 -0.576240	 0.510391
C	 1.071842	 -0.569054	 1.901670
C	 -0.000000	 0.000000	 2.596333
C	 -1.071842	 0.569054	 1.901670
C	 -1.075251	 0.576241	 0.510391
C	 -0.000000	 -0.000000	 -1.658508
H	 1.929769	 -0.980953	 -0.024627
H	 1.908398	 -0.997382	 2.444112
H	 -0.000000	 0.000000	 3.681982
H	 -1.908399	 0.997381	 2.444112
H	 -1.929769	 0.980953	 -0.024627
N	 -0.712589	 -0.905950	 -2.322235
N	 0.712590	 0.905950	 -2.322235
H	 0.673432	 1.006470	 -3.329771
H	 1.377190	 1.485970	 -1.827091
H	 -1.377189	 -1.485970	 -1.827091
H	 -0.673431	 -1.006470	 -3.329771

	symmetry c1
}
set optking { dynamic_level = 1 }
set optking {
	frozen_dihedral = ("
		2 1 7 13
	")
}

ee,wfn = optimize('b3lyp-d3', return_wfn=True)
oeprop( wfn, 'DIPOLE', 'QUADRUPOLE', 'MULLIKEN_CHARGES')
f=open( 'psi4out.xyz', 'w' )
f.write( "18  " )
f.write( str(ee) + "\n" )
f.write( MOL.save_string_xyz() )
f.close()
--------------------------------------------------------------------------

    Molecular point group: c1
  Charge       = 1
  Multiplicity = 1
  Basis Set: 6-31G*
    Blend: 6-31G*
   => B3LYP Composite Functional <=
  Basis Set: (6-31G* AUX)
    Blend: CC-PVDZ-JKFIT
  @DF-RKS Final Energy:  -381.46184120350455
    Total Energy =                       -381.4618412035045480
    Molecular point group: c1
  Basis Set: 6-31G*
    Blend: 6-31G*
  Basis Set: (6-31G* AUX)
    Blend: CC-PVDZ-JKFIT
   => B3LYP Composite Functional <=
  Basis Set: 6-31G*
    Blend: 6-31G*
   => B3LYP Composite Functional <=
  Basis Set: (6-31G* AUX)
    Blend: CC-PVDZ-JKFIT
  @DF-RKS Final Energy:  -381.46407533503987
    Total Energy =                       -381.4640753350398086
  Basis Set: 6-31G*
    Blend: 6-31G*
  Basis Set: (6-31G* AUX)
  @DF-RKS Final Energy:  -381.46461134994621
    Total Energy =                       -381.4646113499462103
  @DF-RKS Final Energy:  -381.46466160359682
    Total Energy =                       -381.4646616035968236
   => B3LYP Composite Functional <=
  Basis Set: (6-31G* AUX)
    Blend: CC-PVDZ-JKFIT
  @DF-RKS Final Energy:  -381.46466720499149
    Total Energy =                       -381.4646672049914287
  Basis Set: 6-31G*
    Blend: 6-31G*
  Basis Set: (6-31G* AUX)
    Blend: CC-PVDZ-JKFIT
   => B3LYP Composite Functional <=
  Charge       = 1
  Multiplicity = 1
  Basis Set: 6-31G*
    Blend: 6-31G*
   => B3LYP Composite Functional <=
  Basis Set: (6-31G* AUX)
    Blend: CC-PVDZ-JKFIT

    Orbital Energies (a.u.)
    -----------------------

    Doubly Occupied:

       1A    -14.576115     2A    -14.576036     3A    -10.502864
       4A    -10.368095     5A    -10.349107     6A    -10.348775
       7A    -10.333818     8A    -10.333592     9A    -10.332916
      10A     -1.190448    11A     -1.099562    12A     -1.008836
      13A     -0.922015    14A     -0.895109    15A     -0.845537
      16A     -0.788083    17A     -0.765773    18A     -0.754608
      19A     -0.728124    20A     -0.691733    21A     -0.666899
      22A     -0.623523    23A     -0.615917    24A     -0.577739
      25A     -0.573112    26A     -0.567305    27A     -0.515501
      28A     -0.496643    29A     -0.491611    30A     -0.479891
      31A     -0.404648    32A     -0.398319

  @DF-RKS Final Energy:  -381.46466769273957

   => Energetics <=

    Nuclear Repulsion Energy =            416.2633510229670719
    One-Electron Energy =               -1327.8653994759340549
    Two-Electron Energy =                 574.5531319154372341
    DFT Exchange-Correlation Energy =     -44.4040658052098038
    Empirical Dispersion Energy =          -0.0116853500000000
    PCM Polarization Energy =               0.0000000000000000
    EFP Energy =                            0.0000000000000000
    Total Energy =                       -381.4646676927395674
    Molecular point group: c1
  Basis Set: 6-31G*
    Blend: 6-31G*
  Basis Set: (6-31G* AUX)
    Blend: CC-PVDZ-JKFIT
   => B3LYP Composite Functional <=

  -Total Gradient:
     Atom            X                  Y                   Z
    ------   -----------------  -----------------  -----------------
       1        0.003447309891     0.003159814415    -0.000057131798
       2       -0.001570545408    -0.002780421600     0.000035929142
       3       -0.000012950674    -0.000023234651     0.000003801381
       4        0.000004110708     0.000000464317    -0.000007390181
       5        0.000001653009     0.000023831360    -0.000002187969
       6       -0.000013664957     0.000002051382    -0.000013325368
       7       -0.004438718717     0.001708185623    -0.000001363952
       8        0.000003247315     0.000005025922     0.000002394723
       9        0.000001543957     0.000005566172    -0.000000706500
      10        0.000000947370    -0.000000404584    -0.000000153077
      11       -0.000002508848    -0.000008024543     0.000003186798
      12       -0.000003127090    -0.000009206557     0.000002662357
      13        0.002611915182    -0.002089297339     0.000029463203
      14       -0.000028072203     0.000014230186     0.000021138170
      15        0.000004810657     0.000000908566    -0.000005344398
      16       -0.000001039414     0.000010370383    -0.000011230531
      17       -0.000011139717    -0.000012086369    -0.000005362256
      18       -0.000001098763    -0.000007336274    -0.000006293706

  **** Optimization is complete! (in 6 steps) ****
    Final optimized geometry and variables:
    Molecular point group: c1

    Geometry (in Angstrom), charge = 1, multiplicity = 1:

    C            0.010336819755     0.042037966465    -0.184746912184
    C            1.087218896281    -0.542200061751     0.497910363371
    C            1.069841528363    -0.570375362296     1.891599207404
    C           -0.009977456999    -0.024635876885     2.590781012349
    C           -1.084777087691     0.544890019191     1.902817908222
    C           -1.088201192962     0.569942973605     0.508990732233
    C           -0.003790974181     0.016935615747    -1.667499872999
    H            1.921694019206    -0.969484359379    -0.050918346594
    H            1.897633055495    -1.021545979380     2.429274912921
    H           -0.015753675405    -0.046879945362     3.676149176259
    H           -1.922387585436     0.966173173841     2.449435204729
    H           -1.923093201439     1.007356870547    -0.031225739569
    N           -0.739830385090    -0.892005850491    -2.287831217634
    N            0.757690454539     0.869649225381    -2.335050218217
    H            0.838508497517     0.877249403259    -3.346667965158
    H            1.285488959814     1.564955020434    -1.821885914243
    H           -1.278418606735    -1.548980102137    -1.736755153231
    H           -0.821434729906    -0.953946960786    -3.297546173343

  Mulliken Charges: (a.u.)
   Center  Symbol    Alpha    Beta     Spin     Total
       1     C     2.99246  2.99246  0.00000  0.01509
       2     C     3.06989  3.06989  0.00000 -0.13979
       3     C     3.06267  3.06267  0.00000 -0.12534
       4     C     3.05358  3.05358  0.00000 -0.10717
       5     C     3.06290  3.06290  0.00000 -0.12580
       6     C     3.07237  3.07237  0.00000 -0.14474
       7     C     2.74671  2.74671  0.00000  0.50657
       8     H     0.41353  0.41353  0.00000  0.17295
       9     H     0.40729  0.40729  0.00000  0.18543
      10     H     0.40667  0.40667  0.00000  0.18665
      11     H     0.40731  0.40731  0.00000  0.18538
      12     H     0.41368  0.41368  0.00000  0.17264
      13     N     3.84451  3.84451  0.00000 -0.68902
      14     N     3.84538  3.84538  0.00000 -0.69077
      15     H     0.30506  0.30506  0.00000  0.38988
      16     H     0.29542  0.29542  0.00000  0.40917
      17     H     0.29553  0.29553  0.00000  0.40893
      18     H     0.30503  0.30503  0.00000  0.38993

   Total alpha = 32.00000, Total beta = 32.00000, Total charge =  1.00000

*** Psi4 exiting successfully. Buy a developer a beer!
