                               Psi4 1.1 release

  ==> Input File <==

--------------------------------------------------------------------------
set_num_threads(1)
set_memory(3145728000)

set { reference rks }
set { basis 6-31G* }

molecule MOL {
    1 1
    noreorient
    nocom
    symmetry c1
    C    0.000000   0.000000  -0.177864
    C    0.036678   1.219374   0.524165
    C    0.031764   1.213119   1.915444
    C   -0.000000  -0.000000   2.610107
    C   -0.031764  -1.213119   1.915444
    C   -0.036677  -1.219374   0.524165
    C    0.000000  -0.000000  -1.644734
    H    0.018170   2.164705  -0.010853
    H    0.042402   2.152895   2.457886
    H   -0.000000  -0.000000   3.695756
    H   -0.042402  -2.152895   2.457886
    H   -0.018170  -2.164705  -0.010853
    N    1.128577  -0.234187  -2.308461
    N   -1.128577   0.234187  -2.308460
    H   -1.201113   0.154336  -3.315997
    H   -1.943991   0.570662  -1.813317
    H    1.943991  -0.570662  -1.813317
    H    1.201112  -0.154337  -3.315997
}

set optking { frozen_dihedral = (" 2 1 7 13 ") }

set optking { dynamic_level = 1
 geom_maxiter = 250
 print_trajectory_xyz_file = True }

energy, wfn = optimize('B3LYP-D3', return_wfn=True)

import os
os.chdir(os.environ['HTMD_PSI4_WORKDIR'])

oeprop(wfn, 'DIPOLE', 'QUADRUPOLE', 'MULLIKEN_CHARGES')

with open('psi4out.xyz', 'w') as f:
    f.write('18 ' )
    f.write('%.12f\n' % energy)
    f.write(MOL.save_string_xyz())
--------------------------------------------------------------------------

    Molecular point group: c1
  Charge       = 1
  Multiplicity = 1
  Basis Set: 6-31G*
    Blend: 6-31G*
   => B3LYP Composite Functional <=
  Basis Set: (6-31G* AUX)
    Blend: CC-PVDZ-JKFIT
  @DF-RKS Final Energy:  -381.46184125231349
    Total Energy =                       -381.4618412523134339
    Molecular point group: c1
  Basis Set: 6-31G*
    Blend: 6-31G*
  Basis Set: (6-31G* AUX)
    Blend: CC-PVDZ-JKFIT
   => B3LYP Composite Functional <=
  Basis Set: 6-31G*
    Blend: 6-31G*
   => B3LYP Composite Functional <=
  Basis Set: (6-31G* AUX)
    Blend: CC-PVDZ-JKFIT
  @DF-RKS Final Energy:  -381.46407533389640
    Total Energy =                       -381.4640753338964601
  Basis Set: 6-31G*
    Blend: 6-31G*
  Basis Set: (6-31G* AUX)
  @DF-RKS Final Energy:  -381.46461134705146
    Total Energy =                       -381.4646113470514592
  @DF-RKS Final Energy:  -381.46466160070463
    Total Energy =                       -381.4646616007046305
   => B3LYP Composite Functional <=
  Basis Set: (6-31G* AUX)
    Blend: CC-PVDZ-JKFIT
  @DF-RKS Final Energy:  -381.46466720209395
    Total Energy =                       -381.4646672020939491
  Basis Set: 6-31G*
    Blend: 6-31G*
  Basis Set: (6-31G* AUX)
    Blend: CC-PVDZ-JKFIT
   => B3LYP Composite Functional <=
  Charge       = 1
  Multiplicity = 1
  Basis Set: 6-31G*
    Blend: 6-31G*
   => B3LYP Composite Functional <=
  Basis Set: (6-31G* AUX)
    Blend: CC-PVDZ-JKFIT

    Orbital Energies (a.u.)
    -----------------------

    Doubly Occupied:

       1A    -14.576115     2A    -14.576036     3A    -10.502864
       4A    -10.368095     5A    -10.349107     6A    -10.348775
       7A    -10.333818     8A    -10.333592     9A    -10.332916
      10A     -1.190448    11A     -1.099562    12A     -1.008836
      13A     -0.922015    14A     -0.895109    15A     -0.845537
      16A     -0.788083    17A     -0.765773    18A     -0.754608
      19A     -0.728124    20A     -0.691733    21A     -0.666899
      22A     -0.623523    23A     -0.615917    24A     -0.577739
      25A     -0.573112    26A     -0.567305    27A     -0.515501
      28A     -0.496643    29A     -0.491611    30A     -0.479891
      31A     -0.404648    32A     -0.398319

  @DF-RKS Final Energy:  -381.46466769062710

   => Energetics <=

    Nuclear Repulsion Energy =            416.2633422745836356
    One-Electron Energy =               -1327.8653853528003310
    Two-Electron Energy =                 574.5531266042652305
    DFT Exchange-Correlation Energy =     -44.4040658666756158
    Empirical Dispersion Energy =          -0.0116853500000000
    PCM Polarization Energy =               0.0000000000000000
    EFP Energy =                            0.0000000000000000
    Total Energy =                       -381.4646676906270386
    Molecular point group: c1
  Basis Set: 6-31G*
    Blend: 6-31G*
  Basis Set: (6-31G* AUX)
    Blend: CC-PVDZ-JKFIT
   => B3LYP Composite Functional <=

  -Total Gradient:
     Atom            X                  Y                   Z
    ------   -----------------  -----------------  -----------------
       1       -0.004364995331     0.001677873644    -0.000057046314
       2        0.003188946395    -0.000166846759     0.000035877812
       3        0.000026570151    -0.000001248946     0.000003871512
       4       -0.000002254514     0.000003429109    -0.000007376015
       5       -0.000022049533    -0.000009115100    -0.000002173614
       6        0.000004215874    -0.000013161645    -0.000013330787
       7        0.000448993327    -0.004734799786    -0.000001523589
       8       -0.000005944977     0.000000665334     0.000002393592
       9       -0.000005661522    -0.000001067871    -0.000000699817
      10       -0.000000057049     0.000001026581    -0.000000138644
      11        0.000008308012     0.000001303356     0.000003193576
      12        0.000009644195     0.000001332372     0.000002663961
      13        0.000706363483     0.003269278654     0.000029473629
      14       -0.000000254772    -0.000031474783     0.000021157942
      15       -0.000002960285     0.000003907594    -0.000005369968
      16       -0.000008838360    -0.000005552220    -0.000011221423
      17        0.000015793978    -0.000004589976    -0.000005355172
      18        0.000007055924     0.000002286134    -0.000006310492

  **** Optimization is complete! (in 6 steps) ****
    Final optimized geometry and variables:
    Molecular point group: c1

    Geometry (in Angstrom), charge = 1, multiplicity = 1:

    C           -0.048230026371    -0.011267064186    -0.173959600664
    C           -0.005119070408     1.213130807226     0.508697697973
    C            0.027848000952     1.210130364177     1.902386556774
    C            0.020510416821     0.000259713768     2.601568302895
    C           -0.010358103269    -1.215717627245     1.913605045080
    C           -0.031260279173    -1.229947315850     0.519777882606
    C           -0.019461891878    -0.012728289000    -1.656712903156
    H            0.005512330051     2.150578195817    -0.040130824403
    H            0.062841268186     2.152239238416     2.440062345188
    H            0.042998028914     0.005001570178     3.686936474746
    H           -0.014219492729    -2.153297553757     2.460222146121
    H           -0.050773735123    -2.172281972485    -0.020438691810
    N            1.122243330175    -0.266574995255    -2.277043934403
    N           -1.122169352388     0.288951012816    -2.324263442753
    H           -1.164989129351     0.357912577508    -3.335881244688
    H           -1.979824424181     0.451583449191    -1.811099285610
    H            1.950391873922    -0.455948233288    -1.725967640164
    H            1.214060255848    -0.312024878031    -3.286758883731

  Mulliken Charges: (a.u.)
   Center  Symbol    Alpha    Beta     Spin     Total
       1     C     2.99246  2.99246  0.00000  0.01509
       2     C     3.06989  3.06989  0.00000 -0.13979
       3     C     3.06267  3.06267  0.00000 -0.12534
       4     C     3.05358  3.05358  0.00000 -0.10717
       5     C     3.06290  3.06290  0.00000 -0.12580
       6     C     3.07237  3.07237  0.00000 -0.14474
       7     C     2.74671  2.74671  0.00000  0.50657
       8     H     0.41353  0.41353  0.00000  0.17295
       9     H     0.40729  0.40729  0.00000  0.18543
      10     H     0.40667  0.40667  0.00000  0.18665
      11     H     0.40731  0.40731  0.00000  0.18538
      12     H     0.41368  0.41368  0.00000  0.17264
      13     N     3.84451  3.84451  0.00000 -0.68902
      14     N     3.84538  3.84538  0.00000 -0.69077
      15     H     0.30506  0.30506  0.00000  0.38988
      16     H     0.29542  0.29542  0.00000  0.40917
      17     H     0.29553  0.29553  0.00000  0.40893
      18     H     0.30503  0.30503  0.00000  0.38993

   Total alpha = 32.00000, Total beta = 32.00000, Total charge =  1.00000

*** Psi4 exiting successfully. Buy a developer a beer!
