                               Psi4 1.1 release

  ==> Input File <==

--------------------------------------------------------------------------
set {
	reference rks
	basis 6-31G*
}

set_num_threads( 8 )
memory 2 gb

molecule MOL {
1 1

C	 1.341574	 0.363103	 -2.127592
C	 2.359070	 0.642984	 -1.196231
C	 3.630781	 0.982261	 -1.647189
C	 3.891408	 1.053226	 -3.019145
C	 2.881379	 0.780283	 -3.946815
C	 1.608209	 0.430776	 -3.507951
C	 -0.000000	 -0.000000	 -1.658508
H	 2.172683	 0.547406	 -0.130228
H	 4.420695	 1.181259	 -0.930273
H	 4.884324	 1.321963	 -3.366320
H	 3.083682	 0.849834	 -5.010662
H	 0.815958	 0.261483	 -4.231772
N	 -0.712589	 -0.905950	 -2.322235
N	 -0.501479	 0.577358	 -0.570281
H	 -1.381335	 0.295908	 -0.153860
H	 -0.033763	 1.376286	 -0.162555
H	 -1.377189	 -1.485970	 -1.827091
H	 -0.673431	 -1.006470	 -3.329771

	symmetry c1
}
set optking { dynamic_level = 1 }
set optking {
	frozen_dihedral = ("
		1 7 13 17
	")
}

ee,wfn = optimize('b3lyp-d3', return_wfn=True)
oeprop( wfn, 'DIPOLE', 'QUADRUPOLE', 'MULLIKEN_CHARGES')
f=open( 'psi4out.xyz', 'w' )
f.write( "18  " )
f.write( str(ee) + "\n" )
f.write( MOL.save_string_xyz() )
f.close()
--------------------------------------------------------------------------

    Molecular point group: c1
  Charge       = 1
  Multiplicity = 1
  Basis Set: 6-31G*
    Blend: 6-31G*
   => B3LYP Composite Functional <=
  Basis Set: (6-31G* AUX)
    Blend: CC-PVDZ-JKFIT
  @DF-RKS Final Energy:  -381.45445535025300
    Total Energy =                       -381.4544553502530562
    Molecular point group: c1
  Basis Set: 6-31G*
    Blend: 6-31G*
  Basis Set: (6-31G* AUX)
    Blend: CC-PVDZ-JKFIT
   => B3LYP Composite Functional <=
  Basis Set: 6-31G*
    Blend: 6-31G*
   => B3LYP Composite Functional <=
  Basis Set: (6-31G* AUX)
    Blend: CC-PVDZ-JKFIT
  @DF-RKS Final Energy:  -381.46077309837472
    Total Energy =                       -381.4607730983747160
  Basis Set: 6-31G*
    Blend: 6-31G*
  Basis Set: (6-31G* AUX)
  @DF-RKS Final Energy:  -381.46276377560923
    Total Energy =                       -381.4627637756092327
  @DF-RKS Final Energy:  -381.46520387150383
    Total Energy =                       -381.4652038715038316
  @DF-RKS Final Energy:  -381.46555741682323
    Total Energy =                       -381.4655574168231738
  @DF-RKS Final Energy:  -381.46559563269210
    Total Energy =                       -381.4655956326921569
   => B3LYP Composite Functional <=
  Basis Set: (6-31G* AUX)
    Blend: CC-PVDZ-JKFIT
  @DF-RKS Final Energy:  -381.46560017998542
    Total Energy =                       -381.4656001799854153
  Basis Set: 6-31G*
    Blend: 6-31G*
  Basis Set: (6-31G* AUX)
    Blend: CC-PVDZ-JKFIT
   => B3LYP Composite Functional <=
  Charge       = 1
  Multiplicity = 1
  Basis Set: 6-31G*
    Blend: 6-31G*
   => B3LYP Composite Functional <=
  Basis Set: (6-31G* AUX)
    Blend: CC-PVDZ-JKFIT

    Orbital Energies (a.u.)
    -----------------------

    Doubly Occupied:

       1A    -14.572329     2A    -14.564769     3A    -10.500204
       4A    -10.376030     5A    -10.358468     6A    -10.357325
       7A    -10.343828     8A    -10.341898     9A    -10.341686
      10A     -1.185691    11A     -1.093857    12A     -1.015942
      13A     -0.927917    14A     -0.903803    15A     -0.845663
      16A     -0.785866    17A     -0.775218    18A     -0.739800
      19A     -0.733230    20A     -0.682319    21A     -0.669557
      22A     -0.629814    23A     -0.615909    24A     -0.593571
      25A     -0.579027    26A     -0.575445    27A     -0.518470
      28A     -0.507987    29A     -0.499764    30A     -0.475473
      31A     -0.411857    32A     -0.407093

  @DF-RKS Final Energy:  -381.46560062468791

   => Energetics <=

    Nuclear Repulsion Energy =            416.8238074058087363
    One-Electron Energy =               -1328.7732939458712735
    Two-Electron Energy =                 574.8988585624001644
    DFT Exchange-Correlation Energy =     -44.4031001470256825
    Empirical Dispersion Energy =          -0.0118725000000000
    PCM Polarization Energy =               0.0000000000000000
    EFP Energy =                            0.0000000000000000
    Total Energy =                       -381.4656006246879656
    Molecular point group: c1
  Basis Set: 6-31G*
    Blend: 6-31G*
  Basis Set: (6-31G* AUX)
    Blend: CC-PVDZ-JKFIT
   => B3LYP Composite Functional <=

  -Total Gradient:
     Atom            X                  Y                   Z
    ------   -----------------  -----------------  -----------------
       1        0.002529011439    -0.004869988855     0.003574592977
       2       -0.000017978449     0.000000209966    -0.000010837228
       3        0.000008625059     0.000001047229     0.000005247519
       4       -0.000007867307    -0.000005429559    -0.000008475950
       5        0.000019903815     0.000003694170     0.000010561816
       6       -0.000023294874     0.000005252331    -0.000020163424
       7       -0.001348963730     0.005040465375    -0.004972918388
       8       -0.000002411428    -0.000004978943    -0.000000740389
       9       -0.000000103818     0.000000704719    -0.000001677317
      10        0.000000140790     0.000001811246     0.000002695358
      11       -0.000000911600    -0.000004188586    -0.000000830023
      12        0.000001367181    -0.000003529306     0.000005642260
      13       -0.007807928337     0.006472091770     0.000134763342
      14       -0.000011461347    -0.000015608353    -0.000052901657
      15        0.000011374514    -0.000017776403     0.000016320568
      16        0.000000363627     0.000004514570    -0.000005872853
      17        0.006620375985    -0.006613101790     0.001312750260
      18        0.000012024693    -0.000004667051     0.000012940786

  **** Optimization is complete! (in 8 steps) ****
    Final optimized geometry and variables:
    Molecular point group: c1

    Geometry (in Angstrom), charge = 1, multiplicity = 1:

    C           -0.182972155973    -0.025629900182     0.053911813968
    C            0.840841719705     0.214644663385     0.989084389622
    C            2.122933879982     0.520476417710     0.542144111249
    C            2.386920226565     0.606207193000    -0.827737258666
    C            1.368962672361     0.378598019318    -1.759060366575
    C            0.086711258877     0.058317973968    -1.325281774841
    C           -1.530231671595    -0.376487614928     0.520378617867
    H            0.656726292898     0.107656203138     2.054273741836
    H            2.917623684646     0.683366281440     1.262910634672
    H            3.387643768232     0.850437564359    -1.170397785530
    H            1.572430018760     0.460204888580    -2.821812858512
    H           -0.708585618071    -0.074681793444    -2.053901778337
    N           -2.273780413552    -1.257761625902    -0.163358991262
    N           -1.994572786448     0.134527628122     1.653570050799
    H           -2.902849811516    -0.110477985868     2.031129995499
    H           -1.498129008972     0.888576797759     2.110406146098
    H           -2.951572991184    -1.841611660859     0.316121903949
    H           -1.810746090242    -1.742169182998    -0.923838442849

  Mulliken Charges: (a.u.)
   Center  Symbol    Alpha    Beta     Spin     Total
       1     C     2.95330  2.95330  0.00000  0.09340
       2     C     3.08316  3.08316  0.00000 -0.16633
       3     C     3.06238  3.06238  0.00000 -0.12477
       4     C     3.05159  3.05159  0.00000 -0.10317
       5     C     3.06225  3.06225  0.00000 -0.12451
       6     C     3.08552  3.08552  0.00000 -0.17103
       7     C     2.73395  2.73395  0.00000  0.53211
       8     H     0.41518  0.41518  0.00000  0.16964
       9     H     0.40521  0.40521  0.00000  0.18958
      10     H     0.40363  0.40363  0.00000  0.19273
      11     H     0.40493  0.40493  0.00000  0.19014
      12     H     0.41159  0.41159  0.00000  0.17682
      13     N     3.85680  3.85680  0.00000 -0.71361
      14     N     3.85841  3.85841  0.00000 -0.71682
      15     H     0.30377  0.30377  0.00000  0.39247
      16     H     0.29874  0.29874  0.00000  0.40252
      17     H     0.30600  0.30600  0.00000  0.38800
      18     H     0.30359  0.30359  0.00000  0.39282

   Total alpha = 32.00000, Total beta = 32.00000, Total charge =  1.00000

*** Psi4 exiting successfully. Buy a developer a beer!
