                               Psi4 1.1 release

  ==> Input File <==

--------------------------------------------------------------------------
set_num_threads(1)
set_memory(4203741184)

set { reference rks }
set { basis cc-pVDZ }

molecule MOL {
    0 1
    noreorient
    nocom
    symmetry c1
    O    1.141000   0.017000   0.083000
    C    2.558000   0.086000  -0.005000
    C    3.192000  -0.789000   1.067000
    O    4.610000  -0.719000   0.979000
    H    0.873696  -0.810064  -0.353985
    H    2.874000   1.128000   0.115000
    H    2.871000  -0.243000  -1.001000
    H    2.876000  -1.830000   0.947000
    H    2.879000  -0.459000   2.064000
    H    4.961000  -1.293000   1.682000
}

set optking { frozen_dihedral = (" 3 2 1 5 ") }

energy, wfn = energy('B3LYP-D3', return_wfn=True)

import os
os.chdir(os.environ['HTMD_PSI4_WORKDIR'])

oeprop(wfn, 'DIPOLE', 'QUADRUPOLE', 'MULLIKEN_CHARGES')

with open('psi4out.xyz', 'w') as f:
    f.write('10 ' )
    f.write('%.12f\n' % energy)
    f.write(MOL.save_string_xyz())
--------------------------------------------------------------------------

    Molecular point group: c1

    Geometry (in Angstrom), charge = 0, multiplicity = 1:

       Center              X                  Y                   Z               Mass
    ------------   -----------------  -----------------  -----------------  -----------------
           O          1.141000000000     0.017000000000     0.083000000000    15.994914619560
           C          2.558000000000     0.086000000000    -0.005000000000    12.000000000000
           C          3.192000000000    -0.789000000000     1.067000000000    12.000000000000
           O          4.610000000000    -0.719000000000     0.979000000000    15.994914619560
           H          0.873696000000    -0.810064000000    -0.353985000000     1.007825032070
           H          2.874000000000     1.128000000000     0.115000000000     1.007825032070
           H          2.871000000000    -0.243000000000    -1.001000000000     1.007825032070
           H          2.876000000000    -1.830000000000     0.947000000000     1.007825032070
           H          2.879000000000    -0.459000000000     2.064000000000     1.007825032070
           H          4.961000000000    -1.293000000000     1.682000000000     1.007825032070

  Charge       = 0
  Multiplicity = 1
  Basis Set: CC-PVDZ
    Blend: CC-PVDZ
   => B3LYP Composite Functional <=
  Basis Set: (CC-PVDZ AUX)
    Blend: CC-PVDZ-JKFIT

    Orbital Energies (a.u.)
    -----------------------

    Doubly Occupied:

       1A    -19.135186     2A    -19.132228     3A    -10.227231
       4A    -10.225889     5A     -1.021354     6A     -1.010023
       7A     -0.731044     8A     -0.613538     9A     -0.521435
      10A     -0.495198    11A     -0.451761    12A     -0.429574
      13A     -0.397584    14A     -0.340173    15A     -0.325627
      16A     -0.270074    17A     -0.265609

  @DF-RKS Final Energy:  -230.25860023667184

   => Energetics <=

    Nuclear Repulsion Energy =            129.7735327300774202
    One-Electron Energy =                -571.2444552252031826
    Two-Electron Energy =                 235.7552592662916027
    DFT Exchange-Correlation Energy =     -24.5383228578376524
    Empirical Dispersion Energy =          -0.0046141500000000
    PCM Polarization Energy =               0.0000000000000000
    EFP Energy =                            0.0000000000000000
    Total Energy =                       -230.2586002366718105

  Mulliken Charges: (a.u.)
   Center  Symbol    Alpha    Beta     Spin     Total
       1     O     4.13921  4.13921  0.00000 -0.27842
       2     C     2.93168  2.93168  0.00000  0.13664
       3     C     2.94090  2.94090  0.00000  0.11821
       4     O     4.14062  4.14062  0.00000 -0.28125
       5     H     0.43004  0.43004  0.00000  0.13992
       6     H     0.48635  0.48635  0.00000  0.02730
       7     H     0.49715  0.49715  0.00000  0.00571
       8     H     0.50795  0.50795  0.00000 -0.01590
       9     H     0.49796  0.49796  0.00000  0.00409
      10     H     0.42814  0.42814  0.00000  0.14371

   Total alpha = 17.00000, Total beta = 17.00000, Total charge = -0.00000

*** Psi4 exiting successfully. Buy a developer a beer!
