                               Psi4 1.1 release

  ==> Input File <==

--------------------------------------------------------------------------
set_num_threads(1)
set_memory(3145728000)

set { reference rks }
set { basis 6-31G* }

molecule MOL {
    1 1
    noreorient
    nocom
    symmetry c1
    C    0.000000   0.000000  -0.177864
    C    0.036678   1.219374   0.524165
    C    0.031764   1.213119   1.915444
    C   -0.000000  -0.000000   2.610107
    C   -0.031764  -1.213119   1.915444
    C   -0.036677  -1.219374   0.524165
    C    0.000000  -0.000000  -1.644734
    H    0.018170   2.164705  -0.010853
    H    0.042402   2.152895   2.457886
    H   -0.000000  -0.000000   3.695756
    H   -0.042402  -2.152895   2.457886
    H   -0.018170  -2.164705  -0.010853
    N   -0.980419   0.606060  -2.308461
    N    0.980419  -0.606060  -2.308460
    H    1.075891  -0.555834  -3.315997
    H    1.631577  -1.201131  -1.813316
    H   -1.631576   1.201131  -1.813317
    H   -1.075890   0.555833  -3.315997
}

set optking { frozen_dihedral = (" 2 1 7 13 ") }

set optking { dynamic_level = 1
 geom_maxiter = 250
 print_trajectory_xyz_file = True }

energy, wfn = optimize('B3LYP-D3', return_wfn=True)

import os
os.chdir(os.environ['HTMD_PSI4_WORKDIR'])

oeprop(wfn, 'DIPOLE', 'QUADRUPOLE', 'MULLIKEN_CHARGES')

with open('psi4out.xyz', 'w') as f:
    f.write('18 ' )
    f.write('%.12f\n' % energy)
    f.write(MOL.save_string_xyz())
--------------------------------------------------------------------------

    Molecular point group: c1
  Charge       = 1
  Multiplicity = 1
  Basis Set: 6-31G*
    Blend: 6-31G*
   => B3LYP Composite Functional <=
  Basis Set: (6-31G* AUX)
    Blend: CC-PVDZ-JKFIT
  @DF-RKS Final Energy:  -381.46389334934656
    Total Energy =                       -381.4638933493465061
    Molecular point group: c1
  Basis Set: 6-31G*
    Blend: 6-31G*
  Basis Set: (6-31G* AUX)
    Blend: CC-PVDZ-JKFIT
   => B3LYP Composite Functional <=
  Basis Set: 6-31G*
    Blend: 6-31G*
   => B3LYP Composite Functional <=
  Basis Set: (6-31G* AUX)
    Blend: CC-PVDZ-JKFIT
  @DF-RKS Final Energy:  -381.46710939710499
    Total Energy =                       -381.4671093971050482
  Basis Set: 6-31G*
    Blend: 6-31G*
  Basis Set: (6-31G* AUX)
  @DF-RKS Final Energy:  -381.46800649571060
    Total Energy =                       -381.4680064957106538
  @DF-RKS Final Energy:  -381.46812547258429
    Total Energy =                       -381.4681254725842336
  @DF-RKS Final Energy:  -381.46813423027896
    Total Energy =                       -381.4681342302789062
   => B3LYP Composite Functional <=
  Basis Set: (6-31G* AUX)
    Blend: CC-PVDZ-JKFIT
  @DF-RKS Final Energy:  -381.46813636506278
    Total Energy =                       -381.4681363650628327
  Basis Set: 6-31G*
    Blend: 6-31G*
  Basis Set: (6-31G* AUX)
    Blend: CC-PVDZ-JKFIT
   => B3LYP Composite Functional <=
  Charge       = 1
  Multiplicity = 1
  Basis Set: 6-31G*
    Blend: 6-31G*
   => B3LYP Composite Functional <=
  Basis Set: (6-31G* AUX)
    Blend: CC-PVDZ-JKFIT

    Orbital Energies (a.u.)
    -----------------------

    Doubly Occupied:

       1A    -14.571980     2A    -14.571913     3A    -10.499459
       4A    -10.370396     5A    -10.352701     6A    -10.352171
       7A    -10.338256     8A    -10.337142     9A    -10.336977
      10A     -1.186825    11A     -1.095775    12A     -1.011590
      13A     -0.924315    14A     -0.898653    15A     -0.844958
      16A     -0.786722    17A     -0.769603    18A     -0.748608
      19A     -0.729956    20A     -0.689657    21A     -0.668205
      22A     -0.621298    23A     -0.620267    24A     -0.580943
      25A     -0.575997    26A     -0.570001    27A     -0.517379
      28A     -0.500972    29A     -0.494841    30A     -0.476070
      31A     -0.408402    32A     -0.402129

  @DF-RKS Final Energy:  -381.46813653725633

   => Energetics <=

    Nuclear Repulsion Energy =            416.7170075748838372
    One-Electron Energy =               -1328.7147892302264154
    Two-Electron Energy =                 574.9465295029440313
    DFT Exchange-Correlation Energy =     -44.4049695548578001
    Empirical Dispersion Energy =          -0.0119148300000000
    PCM Polarization Energy =               0.0000000000000000
    EFP Energy =                            0.0000000000000000
    Total Energy =                       -381.4681365372563846
    Molecular point group: c1
  Basis Set: 6-31G*
    Blend: 6-31G*
  Basis Set: (6-31G* AUX)
    Blend: CC-PVDZ-JKFIT
   => B3LYP Composite Functional <=

  -Total Gradient:
     Atom            X                  Y                   Z
    ------   -----------------  -----------------  -----------------
       1       -0.007611512397    -0.001403199104    -0.000260914413
       2        0.004411806801    -0.000216667424     0.000137128380
       3        0.000019109897     0.000003302684    -0.000001387866
       4        0.000003210466    -0.000000386725    -0.000001561075
       5       -0.000019367972    -0.000004719356    -0.000000715867
       6        0.000010345710    -0.000002188776     0.000000854482
       7        0.005729860251     0.005537800936     0.000233121659
       8       -0.000004235810    -0.000002937954     0.000000601856
       9       -0.000002958432    -0.000001174515     0.000002172643
      10        0.000000343666     0.000000242717     0.000000334896
      11        0.000004449442     0.000000288468     0.000001224861
      12       -0.000001545444     0.000001630162     0.000001748484
      13       -0.002537364887    -0.003933736970    -0.000090118806
      14       -0.000005088912     0.000038671562     0.000007563727
      15       -0.000007355598    -0.000009958496    -0.000008724961
      16        0.000008546475    -0.000008871871    -0.000002126247
      17       -0.000005865441     0.000003153642    -0.000002058570
      18       -0.000003493673     0.000006835107    -0.000014868851

  **** Optimization is complete! (in 7 steps) ****
    Final optimized geometry and variables:
    Molecular point group: c1

    Geometry (in Angstrom), charge = 1, multiplicity = 1:

    C           -0.049373938064     0.007002043290    -0.177287797430
    C           -0.008951113131     1.225033401590     0.521376135576
    C            0.022970434780     1.211551520707     1.913935452750
    C            0.015391510204    -0.004972369422     2.602148164878
    C           -0.010636756217    -1.215836389127     1.903191560712
    C           -0.023324218583    -1.217816392796     0.510743014482
    C           -0.005014794661     0.016049141734    -1.650015845694
    H            0.015251953066     2.167358023405    -0.018867766819
    H            0.062124187155     2.148345097326     2.460370232402
    H            0.034830262771    -0.010086666202     3.687607884233
    H           -0.019271548887    -2.157572768785     2.442468765937
    H           -0.050886929693    -2.155586181288    -0.037058692020
    N           -0.956103045853     0.647668577120    -2.326009756031
    N            0.950215147778    -0.659076542167    -2.275986555783
    H            0.985230475313    -0.770007038686    -3.283451177943
    H            1.705855125412    -1.063158574780    -1.737168522066
    H           -1.723544418845     1.072673297685    -1.820932272617
    H           -0.944759332546     0.758430820396    -3.334061824567

  Mulliken Charges: (a.u.)
   Center  Symbol    Alpha    Beta     Spin     Total
       1     C     2.97728  2.97728  0.00000  0.04545
       2     C     3.07524  3.07524  0.00000 -0.15049
       3     C     3.06177  3.06177  0.00000 -0.12354
       4     C     3.05254  3.05254  0.00000 -0.10509
       5     C     3.06321  3.06321  0.00000 -0.12641
       6     C     3.07714  3.07714  0.00000 -0.15428
       7     C     2.73650  2.73650  0.00000  0.52701
       8     H     0.41341  0.41341  0.00000  0.17317
       9     H     0.40631  0.40631  0.00000  0.18738
      10     H     0.40525  0.40525  0.00000  0.18950
      11     H     0.40629  0.40629  0.00000  0.18741
      12     H     0.41332  0.41332  0.00000  0.17336
      13     N     3.85217  3.85217  0.00000 -0.70435
      14     N     3.85375  3.85375  0.00000 -0.70750
      15     H     0.30534  0.30534  0.00000  0.38931
      16     H     0.29767  0.29767  0.00000  0.40465
      17     H     0.29723  0.29723  0.00000  0.40554
      18     H     0.30556  0.30556  0.00000  0.38888

   Total alpha = 32.00000, Total beta = 32.00000, Total charge =  1.00000

*** Psi4 exiting successfully. Buy a developer a beer!
