                               Psi4 1.1 release

  ==> Input File <==

--------------------------------------------------------------------------
set {
	reference rks
	basis 6-31G*
}

set_num_threads( 8 )
memory 2 gb

molecule MOL {
1 1

C	 -0.000000	 -0.000000	 -0.191639
C	 0.754201	 0.958853	 0.510391
C	 0.746533	 0.956743	 1.901670
C	 -0.000000	 0.000000	 2.596333
C	 -0.746533	 -0.956743	 1.901670
C	 -0.754202	 -0.958853	 0.510391
C	 -0.000000	 -0.000000	 -1.658508
H	 1.301151	 1.730111	 -0.024627
H	 1.313620	 1.706212	 2.444112
H	 -0.000000	 0.000000	 3.681982
H	 -1.313619	 -1.706212	 2.444112
H	 -1.301151	 -1.730111	 -0.024627
N	 -0.712589	 -0.905950	 -2.322235
N	 0.712590	 0.905950	 -2.322235
H	 0.673432	 1.006470	 -3.329771
H	 1.377190	 1.485970	 -1.827091
H	 -1.377189	 -1.485970	 -1.827091
H	 -0.673431	 -1.006470	 -3.329771

	symmetry c1
}
set optking { dynamic_level = 1 }
set optking {
	frozen_dihedral = ("
		2 1 7 13
	")
}

ee,wfn = optimize('b3lyp-d3', return_wfn=True)
oeprop( wfn, 'DIPOLE', 'QUADRUPOLE', 'MULLIKEN_CHARGES')
f=open( 'psi4out.xyz', 'w' )
f.write( "18  " )
f.write( str(ee) + "\n" )
f.write( MOL.save_string_xyz() )
f.close()
--------------------------------------------------------------------------

    Molecular point group: c1
  Charge       = 1
  Multiplicity = 1
  Basis Set: 6-31G*
    Blend: 6-31G*
   => B3LYP Composite Functional <=
  Basis Set: (6-31G* AUX)
    Blend: CC-PVDZ-JKFIT
  @DF-RKS Final Energy:  -381.46394989908845
    Total Energy =                       -381.4639498990884476
    Molecular point group: c1
  Basis Set: 6-31G*
    Blend: 6-31G*
  Basis Set: (6-31G* AUX)
    Blend: CC-PVDZ-JKFIT
   => B3LYP Composite Functional <=
  Basis Set: 6-31G*
    Blend: 6-31G*
   => B3LYP Composite Functional <=
  Basis Set: (6-31G* AUX)
    Blend: CC-PVDZ-JKFIT
  @DF-RKS Final Energy:  -381.46529059769449
    Total Energy =                       -381.4652905976944908
  Basis Set: 6-31G*
    Blend: 6-31G*
  Basis Set: (6-31G* AUX)
  @DF-RKS Final Energy:  -381.46578881865088
    Total Energy =                       -381.4657888186508785
  @DF-RKS Final Energy:  -381.46582677416762
    Total Energy =                       -381.4658267741676809
  @DF-RKS Final Energy:  -381.46584965745319
    Total Energy =                       -381.4658496574531910
  @DF-RKS Final Energy:  -381.46586367994087
    Total Energy =                       -381.4658636799409237
  @DF-RKS Final Energy:  -381.46587575784548
    Total Energy =                       -381.4658757578454242
  @DF-RKS Final Energy:  -381.46588460841758
    Total Energy =                       -381.4658846084175821
  @DF-RKS Final Energy:  -381.46588940064305
    Total Energy =                       -381.4658894006431069
   => B3LYP Composite Functional <=
  Basis Set: (6-31G* AUX)
    Blend: CC-PVDZ-JKFIT
  @DF-RKS Final Energy:  -381.46589065990884
    Total Energy =                       -381.4658906599088368
  Basis Set: 6-31G*
    Blend: 6-31G*
  Basis Set: (6-31G* AUX)
    Blend: CC-PVDZ-JKFIT
   => B3LYP Composite Functional <=
  Charge       = 1
  Multiplicity = 1
  Basis Set: 6-31G*
    Blend: 6-31G*
   => B3LYP Composite Functional <=
  Basis Set: (6-31G* AUX)
    Blend: CC-PVDZ-JKFIT

    Orbital Energies (a.u.)
    -----------------------

    Doubly Occupied:

       1A    -14.564711     2A    -14.564703     3A    -10.498757
       4A    -10.378882     5A    -10.361854     6A    -10.361845
       7A    -10.346501     8A    -10.342991     9A    -10.342949
      10A     -1.183291    11A     -1.088909    12A     -1.017527
      13A     -0.928935    14A     -0.906417    15A     -0.849308
      16A     -0.787674    17A     -0.776884    18A     -0.740264
      19A     -0.736051    20A     -0.685681    21A     -0.669528
      22A     -0.632597    23A     -0.609459    24A     -0.604850
      25A     -0.582658    26A     -0.578605    27A     -0.518370
      28A     -0.510322    29A     -0.501907    30A     -0.469689
      31A     -0.413529    32A     -0.408122

  @DF-RKS Final Energy:  -381.46589077243607

   => Energetics <=

    Nuclear Repulsion Energy =            416.4716293570951962
    One-Electron Energy =               -1327.9979504288953649
    Two-Electron Energy =                 574.4813505507761420
    DFT Exchange-Correlation Energy =     -44.4094680014120442
    Empirical Dispersion Energy =          -0.0114522500000000
    PCM Polarization Energy =               0.0000000000000000
    EFP Energy =                            0.0000000000000000
    Total Energy =                       -381.4658907724360120
    Molecular point group: c1
  Basis Set: 6-31G*
    Blend: 6-31G*
  Basis Set: (6-31G* AUX)
    Blend: CC-PVDZ-JKFIT
   => B3LYP Composite Functional <=

  -Total Gradient:
     Atom            X                  Y                   Z
    ------   -----------------  -----------------  -----------------
       1       -0.000014345409     0.000014957125     0.000007523232
       2       -0.000007269579    -0.000004919613    -0.000008998837
       3        0.000008999606    -0.000011804707     0.000010122498
       4       -0.000004945737     0.000010713922     0.000003768197
       5       -0.000005340198     0.000000333579     0.000002127800
       6        0.000004626341     0.000006316395    -0.000004297896
       7        0.000030086119    -0.000039704483    -0.000012729588
       8        0.000000199764     0.000001867964     0.000007337396
       9        0.000000616953     0.000000697207    -0.000000613343
      10        0.000001610976    -0.000002256393     0.000001208060
      11        0.000004220917    -0.000002641598     0.000000190488
      12       -0.000001675355    -0.000001007564     0.000003817911
      13        0.000007402247     0.000021737308     0.000020731695
      14       -0.000032184636     0.000015061917     0.000006174118
      15        0.000007104022    -0.000002770854     0.000000437088
      16        0.000000510683    -0.000008195779    -0.000004191374
      17        0.000003460168     0.000007340696    -0.000006779624
      18       -0.000003053820    -0.000005718958    -0.000001306236

  **** Optimization is complete! (in 11 steps) ****
    Final optimized geometry and variables:
    Molecular point group: c1

    Geometry (in Angstrom), charge = 1, multiplicity = 1:

    C           -0.000094344024     0.000099361990    -0.192676724588
    C            0.752783481479     0.949646464691     0.527302155800
    C            0.751520459382     0.947730434184     1.917012249459
    C            0.000062880298    -0.000075820877     2.616032936283
    C           -0.751444175720    -0.947829405521     1.916973281835
    C           -0.752894501606    -0.949539708855     0.527272811553
    C            0.000061248484    -0.000036466846    -1.665348556408
    H            1.351546176491     1.705090078708     0.028177298908
    H            1.337287744224     1.686444260356     2.453990270724
    H            0.000180671419    -0.000199858345     3.701568233648
    H           -1.337055530325    -1.686674612269     2.453937800700
    H           -1.351713040279    -1.704912955929     0.028105023341
    N           -0.708611849008    -0.893852794609    -2.353004032666
    N            0.708542829659     0.893921925678    -2.353046801841
    H            0.721204443538     0.908833610817    -3.365084355423
    H            1.266070411396     1.595852595721    -1.890457305545
    H           -1.265759693840    -1.596066916283    -1.890394709311
    H           -0.720743244488    -0.909265518289    -3.365043241513

  Mulliken Charges: (a.u.)
   Center  Symbol    Alpha    Beta     Spin     Total
       1     C     2.92330  2.92330  0.00000  0.15339
       2     C     3.08669  3.08669  0.00000 -0.17339
       3     C     3.06153  3.06153  0.00000 -0.12306
       4     C     3.05119  3.05119  0.00000 -0.10238
       5     C     3.06153  3.06153  0.00000 -0.12306
       6     C     3.08669  3.08669  0.00000 -0.17339
       7     C     2.70472  2.70472  0.00000  0.59055
       8     H     0.42243  0.42243  0.00000  0.15513
       9     H     0.40493  0.40493  0.00000  0.19014
      10     H     0.40263  0.40263  0.00000  0.19475
      11     H     0.40493  0.40493  0.00000  0.19014
      12     H     0.42244  0.42244  0.00000  0.15513
      13     N     3.87877  3.87877  0.00000 -0.75755
      14     N     3.87877  3.87877  0.00000 -0.75755
      15     H     0.30596  0.30596  0.00000  0.38808
      16     H     0.29876  0.29876  0.00000  0.40249
      17     H     0.29876  0.29876  0.00000  0.40249
      18     H     0.30596  0.30596  0.00000  0.38808

   Total alpha = 32.00000, Total beta = 32.00000, Total charge =  1.00000

*** Psi4 exiting successfully. Buy a developer a beer!
