                               Psi4 1.1 release

  ==> Input File <==

--------------------------------------------------------------------------
set_num_threads( 8 )
memory 2.000000 gb

set { reference rks }
set { basis cc-pVDZ }

molecule MOL {
    0 1
    noreorient
    nocom
    symmetry c1
    O    1.050400   0.042900  -0.048100
    C    2.474100   0.047400  -0.029000
    C    3.002600  -1.068900  -0.932000
    N    4.462700  -1.072400  -1.006800
    H    0.760400   0.728400   0.578000
    H    2.809900  -0.097900   1.003200
    H    2.817400   1.026800  -0.378600
    H    2.581000  -0.963300  -1.938400
    H    2.653800  -2.036400  -0.553400
    H    4.823846  -1.890121  -0.516507
    H    4.819123  -0.262859  -0.499004
}

set optking { frozen_dihedral = (" 2 3 4 10 ") }

energy, wfn = energy('B3LYP-D3', return_wfn=True)

import os
os.chdir(os.environ['HTMD_PSI4_WORKDIR'])

oeprop(wfn, 'DIPOLE', 'QUADRUPOLE', 'MULLIKEN_CHARGES')

with open('psi4out.xyz', 'w') as f:
    f.write('11 ' )
    f.write('%.12f\n' % energy)
    f.write(MOL.save_string_xyz())
--------------------------------------------------------------------------

    Molecular point group: c1

    Geometry (in Angstrom), charge = 0, multiplicity = 1:

       Center              X                  Y                   Z               Mass
    ------------   -----------------  -----------------  -----------------  -----------------
           O          1.050400000000     0.042900000000    -0.048100000000    15.994914619560
           C          2.474100000000     0.047400000000    -0.029000000000    12.000000000000
           C          3.002600000000    -1.068900000000    -0.932000000000    12.000000000000
           N          4.462700000000    -1.072400000000    -1.006800000000    14.003074004780
           H          0.760400000000     0.728400000000     0.578000000000     1.007825032070
           H          2.809900000000    -0.097900000000     1.003200000000     1.007825032070
           H          2.817400000000     1.026800000000    -0.378600000000     1.007825032070
           H          2.581000000000    -0.963300000000    -1.938400000000     1.007825032070
           H          2.653800000000    -2.036400000000    -0.553400000000     1.007825032070
           H          4.823846000000    -1.890121000000    -0.516507000000     1.007825032070
           H          4.819123000000    -0.262859000000    -0.499004000000     1.007825032070

  Charge       = 0
  Multiplicity = 1
  Basis Set: CC-PVDZ
    Blend: CC-PVDZ
   => B3LYP Composite Functional <=
  Basis Set: (CC-PVDZ AUX)
    Blend: CC-PVDZ-JKFIT

    Orbital Energies (a.u.)
    -----------------------

    Doubly Occupied:

       1A    -19.130107     2A    -14.305193     3A    -10.228606
       4A    -10.201457     5A     -1.012683     6A     -0.878673
       7A     -0.711966     8A     -0.605041     9A     -0.508360
      10A     -0.489203    11A     -0.455886    12A     -0.413182
      13A     -0.392709    14A     -0.361692    15A     -0.328443
      16A     -0.264651    17A     -0.232062

  @DF-RKS Final Energy:  -210.38829463985806

   => Energetics <=

    Nuclear Repulsion Energy =            130.8101605383433537
    One-Electron Energy =                -544.4743877486226893
    Two-Electron Energy =                 226.7684755073366034
    DFT Exchange-Correlation Energy =     -23.4875912169152876
    Empirical Dispersion Energy =          -0.0049517200000000
    PCM Polarization Energy =               0.0000000000000000
    EFP Energy =                            0.0000000000000000
    Total Energy =                       -210.3882946398580600

  Mulliken Charges: (a.u.)
   Center  Symbol    Alpha    Beta     Spin     Total
       1     O     4.13745  4.13745  0.00000 -0.27489
       2     C     2.94396  2.94396  0.00000  0.11208
       3     C     2.97869  2.97869  0.00000  0.04263
       4     N     3.59032  3.59032  0.00000 -0.18065
       5     H     0.43051  0.43051  0.00000  0.13898
       6     H     0.50474  0.50474  0.00000 -0.00949
       7     H     0.49850  0.49850  0.00000  0.00300
       8     H     0.48990  0.48990  0.00000  0.02019
       9     H     0.49448  0.49448  0.00000  0.01103
      10     H     0.46262  0.46262  0.00000  0.07475
      11     H     0.46882  0.46882  0.00000  0.06237

   Total alpha = 17.00000, Total beta = 17.00000, Total charge =  0.00000

*** Psi4 exiting successfully. Buy a developer a beer!
