                               Psi4 1.1 release

  ==> Input File <==

--------------------------------------------------------------------------
set {
	reference rks
	basis 6-31G*
}

set_num_threads( 8 )
memory 2 gb

molecule MOL {
1 1

C	 0.000000	 0.000000	 -0.170000
C	 0.007000	 1.210000	 0.523000
C	 0.000000	 1.205000	 1.904000
C	 0.000000	 0.000000	 2.592000
C	 0.000000	 -1.205000	 1.904000
C	 -0.007000	 -1.210000	 0.523000
C	 0.000000	 0.000000	 -1.643000
H	 -0.019000	 2.146000	 -0.006000
H	 -0.011000	 2.134000	 2.442000
H	 0.000000	 0.000000	 3.666000
H	 0.011000	 -2.134000	 2.442000
H	 0.019000	 -2.146000	 -0.006000
N	 -0.741000	 -0.864000	 -2.296000
N	 0.741000	 0.864000	 -2.296000
H	 0.721000	 0.947000	 -3.291000
H	 1.404000	 1.427000	 -1.808000
H	 -1.404000	 -1.427000	 -1.808000
H	 -0.721000	 -0.947000	 -3.291000

	symmetry c1
}
set optking { dynamic_level = 1 }
ee,wfn = optimize('b3lyp-d3', return_wfn=True)
oeprop( wfn, 'DIPOLE', 'QUADRUPOLE', 'MULLIKEN_CHARGES')
f=open( 'psi4out.xyz', 'w' )
f.write( "18  " )
f.write( str(ee) + "\n" )
f.write( MOL.save_string_xyz() )
f.close()
--------------------------------------------------------------------------

    Molecular point group: c1
  Charge       = 1
  Multiplicity = 1
  Basis Set: 6-31G*
    Blend: 6-31G*
   => B3LYP Composite Functional <=
  Basis Set: (6-31G* AUX)
    Blend: CC-PVDZ-JKFIT
  @DF-RKS Final Energy:  -381.46781943499155
    Total Energy =                       -381.4678194349914975
    Molecular point group: c1
  Basis Set: 6-31G*
    Blend: 6-31G*
  Basis Set: (6-31G* AUX)
    Blend: CC-PVDZ-JKFIT
   => B3LYP Composite Functional <=
  Basis Set: 6-31G*
    Blend: 6-31G*
   => B3LYP Composite Functional <=
  Basis Set: (6-31G* AUX)
    Blend: CC-PVDZ-JKFIT
  @DF-RKS Final Energy:  -381.47041477150185
    Total Energy =                       -381.4704147715018507
  Basis Set: 6-31G*
    Blend: 6-31G*
  Basis Set: (6-31G* AUX)
  @DF-RKS Final Energy:  -381.47049075050228
    Total Energy =                       -381.4704907505023357
  @DF-RKS Final Energy:  -381.47050699811149
    Total Energy =                       -381.4705069981115457
   => B3LYP Composite Functional <=
  Basis Set: (6-31G* AUX)
    Blend: CC-PVDZ-JKFIT
  @DF-RKS Final Energy:  -381.47050910380261
    Total Energy =                       -381.4705091038026126
  Basis Set: 6-31G*
    Blend: 6-31G*
  Basis Set: (6-31G* AUX)
    Blend: CC-PVDZ-JKFIT
   => B3LYP Composite Functional <=
  Charge       = 1
  Multiplicity = 1
  Basis Set: 6-31G*
    Blend: 6-31G*
   => B3LYP Composite Functional <=
  Basis Set: (6-31G* AUX)
    Blend: CC-PVDZ-JKFIT

    Orbital Energies (a.u.)
    -----------------------

    Doubly Occupied:

       1A    -14.568043     2A    -14.568035     3A    -10.497180
       4A    -10.373175     5A    -10.356122     6A    -10.356113
       7A    -10.342965     8A    -10.340403     9A    -10.340346
      10A     -1.183828    11A     -1.091958    12A     -1.014244
      13A     -0.926589    14A     -0.902174    15A     -0.845401
      16A     -0.785712    17A     -0.773381    18A     -0.741668
      19A     -0.732896    20A     -0.688868    21A     -0.669057
      22A     -0.625497    23A     -0.617233    24A     -0.586921
      25A     -0.579015    26A     -0.572821    27A     -0.518317
      28A     -0.505465    29A     -0.498054    30A     -0.472890
      31A     -0.411668    32A     -0.405682

  @DF-RKS Final Energy:  -381.47050946134078

   => Energetics <=

    Nuclear Repulsion Energy =            416.9186210264552415
    One-Electron Energy =               -1329.0469079871938902
    Two-Electron Energy =                 575.0756716010705532
    DFT Exchange-Correlation Energy =     -44.4059619816727107
    Empirical Dispersion Energy =          -0.0119321200000000
    PCM Polarization Energy =               0.0000000000000000
    EFP Energy =                            0.0000000000000000
    Total Energy =                       -381.4705094613408392
    Molecular point group: c1
  Basis Set: 6-31G*
    Blend: 6-31G*
  Basis Set: (6-31G* AUX)
    Blend: CC-PVDZ-JKFIT
   => B3LYP Composite Functional <=

  -Total Gradient:
     Atom            X                  Y                   Z
    ------   -----------------  -----------------  -----------------
       1       -0.000000010787     0.000000023999    -0.000056351449
       2        0.000007757230     0.000001746343     0.000014187579
       3       -0.000008328452     0.000008772619     0.000002561949
       4        0.000000001694     0.000000016144     0.000010265741
       5        0.000008329675    -0.000008778331     0.000002574541
       6       -0.000007758282    -0.000001755705     0.000014175153
       7       -0.000000007898    -0.000000014365     0.000044080422
       8       -0.000004242191    -0.000001256925     0.000001837778
       9        0.000003624933    -0.000003219706    -0.000004384523
      10        0.000000000383     0.000000000564    -0.000003949650
      11       -0.000003623542     0.000003207981    -0.000004377020
      12        0.000004243676     0.000001249329     0.000001832111
      13       -0.000040864980    -0.000003533923    -0.000038019368
      14        0.000040872478     0.000003535426    -0.000038017895
      15       -0.000010342432    -0.000002513720     0.000017565411
      16       -0.000017118448    -0.000000256257    -0.000001260651
      17        0.000017125599     0.000000260526    -0.000001263686
      18        0.000010341364     0.000002516034     0.000017581105

  **** Optimization is complete! (in 6 steps) ****
    Final optimized geometry and variables:
    Molecular point group: c1

    Geometry (in Angstrom), charge = 1, multiplicity = 1:

    C           -0.000000198241    -0.000000006181    -0.191639006287
    C            0.036677315665     1.219374456554     0.510390372224
    C            0.031764303843     1.213119543854     1.901669703674
    C            0.000000141622     0.000000015991     2.596332246086
    C           -0.031764212693    -1.213119533979     1.901669738896
    C           -0.036677548371    -1.219374475079     0.510390391598
    C           -0.000000033513     0.000000010313    -1.658508034156
    H            0.018169683277     2.164704927749    -0.024627843532
    H            0.042401591993     2.152895097964     2.444111338327
    H            0.000000303063     0.000000037020     3.681981784983
    H           -0.042401329685    -2.152895073994     2.444111396174
    H           -0.018169957332    -2.164704952560    -0.024627813482
    N           -0.712589417576    -0.905950251187    -2.322235178881
    N            0.712589561970     0.905950243094    -2.322235032285
    H            0.673431749327     1.006469675919    -3.329771390953
    H            1.377189539674     1.485969980139    -1.827091005792
    H           -1.377189465768    -1.485970001037    -1.827091296274
    H           -0.673431362144    -1.006469715372    -3.329771501624

  Mulliken Charges: (a.u.)
   Center  Symbol    Alpha    Beta     Spin     Total
       1     C     2.95717  2.95717  0.00000  0.08566
       2     C     3.08208  3.08208  0.00000 -0.16415
       3     C     3.06249  3.06249  0.00000 -0.12497
       4     C     3.05148  3.05148  0.00000 -0.10295
       5     C     3.06249  3.06249  0.00000 -0.12497
       6     C     3.08208  3.08208  0.00000 -0.16415
       7     C     2.72193  2.72193  0.00000  0.55615
       8     H     0.41420  0.41420  0.00000  0.17160
       9     H     0.40544  0.40544  0.00000  0.18911
      10     H     0.40389  0.40389  0.00000  0.19223
      11     H     0.40544  0.40544  0.00000  0.18911
      12     H     0.41420  0.41420  0.00000  0.17160
      13     N     3.86323  3.86323  0.00000 -0.72645
      14     N     3.86323  3.86323  0.00000 -0.72645
      15     H     0.30570  0.30570  0.00000  0.38861
      16     H     0.29964  0.29964  0.00000  0.40071
      17     H     0.29964  0.29964  0.00000  0.40071
      18     H     0.30570  0.30570  0.00000  0.38861

   Total alpha = 32.00000, Total beta = 32.00000, Total charge =  1.00000

*** Psi4 exiting successfully. Buy a developer a beer!
