                               Psi4 1.1 release

  ==> Input File <==

--------------------------------------------------------------------------
set_num_threads( 8 )
memory 2.000000 gb

set { reference rks }
set { basis cc-pVDZ }

molecule MOL {
    0 1
    noreorient
    nocom
    symmetry c1
    O    1.050400   0.042900  -0.048100
    C    2.474100   0.047400  -0.029000
    C    3.002600  -1.068900  -0.932000
    N    4.462700  -1.072400  -1.006800
    H    0.760400   0.728400   0.578000
    H    2.809900  -0.097900   1.003200
    H    2.817400   1.026800  -0.378600
    H    2.581000  -0.963300  -1.938400
    H    2.653800  -2.036400  -0.553400
    H    4.751162  -1.271290  -1.964252
    H    4.818229  -1.844015  -0.442477
}

set optking { frozen_dihedral = (" 2 3 4 10 ") }

energy, wfn = energy('B3LYP-D3', return_wfn=True)

import os
os.chdir(os.environ['HTMD_PSI4_WORKDIR'])

oeprop(wfn, 'DIPOLE', 'QUADRUPOLE', 'MULLIKEN_CHARGES')

with open('psi4out.xyz', 'w') as f:
    f.write('11 ' )
    f.write('%.12f\n' % energy)
    f.write(MOL.save_string_xyz())
--------------------------------------------------------------------------

    Molecular point group: c1

    Geometry (in Angstrom), charge = 0, multiplicity = 1:

       Center              X                  Y                   Z               Mass
    ------------   -----------------  -----------------  -----------------  -----------------
           O          1.050400000000     0.042900000000    -0.048100000000    15.994914619560
           C          2.474100000000     0.047400000000    -0.029000000000    12.000000000000
           C          3.002600000000    -1.068900000000    -0.932000000000    12.000000000000
           N          4.462700000000    -1.072400000000    -1.006800000000    14.003074004780
           H          0.760400000000     0.728400000000     0.578000000000     1.007825032070
           H          2.809900000000    -0.097900000000     1.003200000000     1.007825032070
           H          2.817400000000     1.026800000000    -0.378600000000     1.007825032070
           H          2.581000000000    -0.963300000000    -1.938400000000     1.007825032070
           H          2.653800000000    -2.036400000000    -0.553400000000     1.007825032070
           H          4.751162000000    -1.271290000000    -1.964252000000     1.007825032070
           H          4.818229000000    -1.844015000000    -0.442477000000     1.007825032070

  Charge       = 0
  Multiplicity = 1
  Basis Set: CC-PVDZ
    Blend: CC-PVDZ
   => B3LYP Composite Functional <=
  Basis Set: (CC-PVDZ AUX)
    Blend: CC-PVDZ-JKFIT

    Orbital Energies (a.u.)
    -----------------------

    Doubly Occupied:

       1A    -19.122869     2A    -14.306028     3A    -10.216891
       4A    -10.201648     5A     -1.005295     6A     -0.877024
       7A     -0.710134     8A     -0.592005     9A     -0.502907
      10A     -0.494665    11A     -0.440435    12A     -0.421122
      13A     -0.393231    14A     -0.347817    15A     -0.323647
      16A     -0.256388    17A     -0.234983

  @DF-RKS Final Energy:  -210.39009333227054

   => Energetics <=

    Nuclear Repulsion Energy =            130.2565308059568849
    One-Electron Energy =                -543.5171582912830672
    Two-Electron Energy =                 226.3622698357214631
    DFT Exchange-Correlation Energy =     -23.4870329726658582
    Empirical Dispersion Energy =          -0.0047027100000000
    PCM Polarization Energy =               0.0000000000000000
    EFP Energy =                            0.0000000000000000
    Total Energy =                       -210.3900933322705669

  Mulliken Charges: (a.u.)
   Center  Symbol    Alpha    Beta     Spin     Total
       1     O     4.14120  4.14120  0.00000 -0.28239
       2     C     2.92104  2.92104  0.00000  0.15792
       3     C     2.99702  2.99702  0.00000  0.00597
       4     N     3.58804  3.58804  0.00000 -0.17608
       5     H     0.43023  0.43023  0.00000  0.13954
       6     H     0.50447  0.50447  0.00000 -0.00893
       7     H     0.50144  0.50144  0.00000 -0.00289
       8     H     0.49201  0.49201  0.00000  0.01599
       9     H     0.49748  0.49748  0.00000  0.00503
      10     H     0.46312  0.46312  0.00000  0.07376
      11     H     0.46396  0.46396  0.00000  0.07209

   Total alpha = 17.00000, Total beta = 17.00000, Total charge = -0.00000

*** Psi4 exiting successfully. Buy a developer a beer!
