                               Psi4 1.1 release

  ==> Input File <==

--------------------------------------------------------------------------
set_num_threads(1)
set_memory('2004 MB')

set { scf_mem_safety_factor 0.7 }

set { reference rks }
set { basis cc-pVDZ }

molecule MOL {
    0 1
    noreorient
    nocom
    symmetry c1
    O    1.141000   0.017000   0.083000
    C    2.558000   0.086000  -0.005000
    C    3.192000  -0.789000   1.067000
    O    4.610000  -0.719000   0.979000
    H    0.789000   0.590000  -0.620000
    H    2.874000   1.128000   0.115000
    H    2.871000  -0.243000  -1.001000
    H    2.876000  -1.830000   0.947000
    H    2.879000  -0.459000   2.064000
    H    4.899207  -1.519002   0.506515
}

set optking { frozen_dihedral = (" 2 3 4 10 ") }

energy, wfn = energy('B3LYP-D3', return_wfn=True)

import os
os.chdir(os.environ['HTMD_PSI4_WORKDIR'])

oeprop(wfn, 'DIPOLE', 'QUADRUPOLE', 'MULLIKEN_CHARGES')

with open('psi4out.xyz', 'w') as f:
    f.write('10 ' )
    f.write('%.12f\n' % energy)
    f.write(MOL.save_string_xyz())
--------------------------------------------------------------------------

    Molecular point group: c1

    Geometry (in Angstrom), charge = 0, multiplicity = 1:

       Center              X                  Y                   Z               Mass
    ------------   -----------------  -----------------  -----------------  -----------------
           O          1.141000000000     0.017000000000     0.083000000000    15.994914619560
           C          2.558000000000     0.086000000000    -0.005000000000    12.000000000000
           C          3.192000000000    -0.789000000000     1.067000000000    12.000000000000
           O          4.610000000000    -0.719000000000     0.979000000000    15.994914619560
           H          0.789000000000     0.590000000000    -0.620000000000     1.007825032070
           H          2.874000000000     1.128000000000     0.115000000000     1.007825032070
           H          2.871000000000    -0.243000000000    -1.001000000000     1.007825032070
           H          2.876000000000    -1.830000000000     0.947000000000     1.007825032070
           H          2.879000000000    -0.459000000000     2.064000000000     1.007825032070
           H          4.899207000000    -1.519002000000     0.506515000000     1.007825032070

  Charge       = 0
  Multiplicity = 1
  Basis Set: CC-PVDZ
    Blend: CC-PVDZ
   => B3LYP Composite Functional <=
  Basis Set: (CC-PVDZ AUX)
    Blend: CC-PVDZ-JKFIT

    Orbital Energies (a.u.)
    -----------------------

    Doubly Occupied:

       1A    -19.134566     2A    -19.130839     3A    -10.227072
       4A    -10.223967     5A     -1.020274     6A     -1.009192
       7A     -0.730781     8A     -0.609552     9A     -0.523971
      10A     -0.493672    11A     -0.452638    12A     -0.425829
      13A     -0.396718    14A     -0.337842    15A     -0.325774
      16A     -0.269655    17A     -0.263939

  @DF-RKS Final Energy:  -230.25771732734287

   => Energetics <=

    Nuclear Repulsion Energy =            129.6598899899484536
    One-Electron Energy =                -571.0497129692568024
    Two-Electron Energy =                 235.6754532884299351
    DFT Exchange-Correlation Energy =     -24.5388245764644530
    Empirical Dispersion Energy =          -0.0045230600000000
    PCM Polarization Energy =               0.0000000000000000
    EFP Energy =                            0.0000000000000000
    Total Energy =                       -230.2577173273428741

  Mulliken Charges: (a.u.)
   Center  Symbol    Alpha    Beta     Spin     Total
       1     O     4.14094  4.14094  0.00000 -0.28188
       2     C     2.93670  2.93670  0.00000  0.12660
       3     C     2.93575  2.93575  0.00000  0.12849
       4     O     4.13970  4.13970  0.00000 -0.27939
       5     H     0.42816  0.42816  0.00000  0.14369
       6     H     0.49799  0.49799  0.00000  0.00401
       7     H     0.50658  0.50658  0.00000 -0.01316
       8     H     0.49713  0.49713  0.00000  0.00575
       9     H     0.48854  0.48854  0.00000  0.02293
      10     H     0.42852  0.42852  0.00000  0.14296

   Total alpha = 17.00000, Total beta = 17.00000, Total charge = -0.00000

*** Psi4 exiting successfully. Buy a developer a beer!
