                               Psi4 1.1 release

  ==> Input File <==

--------------------------------------------------------------------------
set_num_threads(1)
set_memory(4203741184)

set { reference rks }
set { basis cc-pVDZ }

molecule MOL {
    0 1
    noreorient
    nocom
    symmetry c1
    O    1.141000   0.017000   0.083000
    C    2.558000   0.086000  -0.005000
    C    3.192000  -0.789000   1.067000
    O    4.610000  -0.719000   0.979000
    H    0.900112   0.335945   0.969955
    H    2.874000   1.128000   0.115000
    H    2.871000  -0.243000  -1.001000
    H    2.876000  -1.830000   0.947000
    H    2.879000  -0.459000   2.064000
    H    4.961000  -1.293000   1.682000
}

set optking { frozen_dihedral = (" 3 2 1 5 ") }

energy, wfn = energy('B3LYP-D3', return_wfn=True)

import os
os.chdir(os.environ['HTMD_PSI4_WORKDIR'])

oeprop(wfn, 'DIPOLE', 'QUADRUPOLE', 'MULLIKEN_CHARGES')

with open('psi4out.xyz', 'w') as f:
    f.write('10 ' )
    f.write('%.12f\n' % energy)
    f.write(MOL.save_string_xyz())
--------------------------------------------------------------------------

    Molecular point group: c1

    Geometry (in Angstrom), charge = 0, multiplicity = 1:

       Center              X                  Y                   Z               Mass
    ------------   -----------------  -----------------  -----------------  -----------------
           O          1.141000000000     0.017000000000     0.083000000000    15.994914619560
           C          2.558000000000     0.086000000000    -0.005000000000    12.000000000000
           C          3.192000000000    -0.789000000000     1.067000000000    12.000000000000
           O          4.610000000000    -0.719000000000     0.979000000000    15.994914619560
           H          0.900112000000     0.335945000000     0.969955000000     1.007825032070
           H          2.874000000000     1.128000000000     0.115000000000     1.007825032070
           H          2.871000000000    -0.243000000000    -1.001000000000     1.007825032070
           H          2.876000000000    -1.830000000000     0.947000000000     1.007825032070
           H          2.879000000000    -0.459000000000     2.064000000000     1.007825032070
           H          4.961000000000    -1.293000000000     1.682000000000     1.007825032070

  Charge       = 0
  Multiplicity = 1
  Basis Set: CC-PVDZ
    Blend: CC-PVDZ
   => B3LYP Composite Functional <=
  Basis Set: (CC-PVDZ AUX)
    Blend: CC-PVDZ-JKFIT

    Orbital Energies (a.u.)
    -----------------------

    Doubly Occupied:

       1A    -19.134981     2A    -19.134521     3A    -10.229349
       4A    -10.227236     5A     -1.022523     6A     -1.011139
       7A     -0.731742     8A     -0.618037     9A     -0.519054
      10A     -0.495503    11A     -0.456300    12A     -0.429483
      13A     -0.398261    14A     -0.345419    15A     -0.324572
      16A     -0.269212    17A     -0.268046

  @DF-RKS Final Energy:  -230.25874143761231

   => Energetics <=

    Nuclear Repulsion Energy =            129.8995621552890043
    One-Electron Energy =                -571.4533037772723674
    Two-Electron Energy =                 235.8375986351813083
    DFT Exchange-Correlation Energy =     -24.5379469608102809
    Empirical Dispersion Energy =          -0.0046514900000000
    PCM Polarization Energy =               0.0000000000000000
    EFP Energy =                            0.0000000000000000
    Total Energy =                       -230.2587414376123149

  Mulliken Charges: (a.u.)
   Center  Symbol    Alpha    Beta     Spin     Total
       1     O     4.13878  4.13878  0.00000 -0.27756
       2     C     2.92675  2.92675  0.00000  0.14650
       3     C     2.94741  2.94741  0.00000  0.10518
       4     O     4.13956  4.13956  0.00000 -0.27911
       5     H     0.43125  0.43125  0.00000  0.13750
       6     H     0.49703  0.49703  0.00000  0.00594
       7     H     0.48568  0.48568  0.00000  0.02863
       8     H     0.49783  0.49783  0.00000  0.00433
       9     H     0.50762  0.50762  0.00000 -0.01523
      10     H     0.42809  0.42809  0.00000  0.14382

   Total alpha = 17.00000, Total beta = 17.00000, Total charge = -0.00000

*** Psi4 exiting successfully. Buy a developer a beer!
