                               Psi4 1.1 release

  ==> Input File <==

--------------------------------------------------------------------------
set_num_threads( 8 )
memory 2.000000 gb

set { reference rks }
set { basis cc-pVDZ }

molecule MOL {
    0 1
    noreorient
    nocom
    symmetry c1
    O    1.050400   0.042900  -0.048100
    C    2.474100   0.047400  -0.029000
    C    3.002600  -1.068900  -0.932000
    N    4.462700  -1.072400  -1.006800
    H    0.760400   0.728400   0.578000
    H    2.809900  -0.097900   1.003200
    H    2.817400   1.026800  -0.378600
    H    2.581000  -0.963300  -1.938400
    H    2.653800  -2.036400  -0.553400
    H    4.768654  -0.356941  -1.665581
    H    4.768909  -1.962430  -1.399654
}

set optking { frozen_dihedral = (" 2 3 4 10 ") }

energy, wfn = energy('B3LYP-D3', return_wfn=True)

import os
os.chdir(os.environ['HTMD_PSI4_WORKDIR'])

oeprop(wfn, 'DIPOLE', 'QUADRUPOLE', 'MULLIKEN_CHARGES')

with open('psi4out.xyz', 'w') as f:
    f.write('11 ' )
    f.write('%.12f\n' % energy)
    f.write(MOL.save_string_xyz())
--------------------------------------------------------------------------

    Molecular point group: c1

    Geometry (in Angstrom), charge = 0, multiplicity = 1:

       Center              X                  Y                   Z               Mass
    ------------   -----------------  -----------------  -----------------  -----------------
           O          1.050400000000     0.042900000000    -0.048100000000    15.994914619560
           C          2.474100000000     0.047400000000    -0.029000000000    12.000000000000
           C          3.002600000000    -1.068900000000    -0.932000000000    12.000000000000
           N          4.462700000000    -1.072400000000    -1.006800000000    14.003074004780
           H          0.760400000000     0.728400000000     0.578000000000     1.007825032070
           H          2.809900000000    -0.097900000000     1.003200000000     1.007825032070
           H          2.817400000000     1.026800000000    -0.378600000000     1.007825032070
           H          2.581000000000    -0.963300000000    -1.938400000000     1.007825032070
           H          2.653800000000    -2.036400000000    -0.553400000000     1.007825032070
           H          4.768654000000    -0.356941000000    -1.665581000000     1.007825032070
           H          4.768909000000    -1.962430000000    -1.399654000000     1.007825032070

  Charge       = 0
  Multiplicity = 1
  Basis Set: CC-PVDZ
    Blend: CC-PVDZ
   => B3LYP Composite Functional <=
  Basis Set: (CC-PVDZ AUX)
    Blend: CC-PVDZ-JKFIT

    Orbital Energies (a.u.)
    -----------------------

    Doubly Occupied:

       1A    -19.125269     2A    -14.305486     3A    -10.220987
       4A    -10.201786     5A     -1.007676     6A     -0.876831
       7A     -0.711371     8A     -0.594894     9A     -0.504279
      10A     -0.490237    11A     -0.447515    12A     -0.418954
      13A     -0.390830    14A     -0.356849    15A     -0.323129
      16A     -0.258886    17A     -0.232618

  @DF-RKS Final Energy:  -210.39134894832486

   => Energetics <=

    Nuclear Repulsion Energy =            130.3389792595722270
    One-Electron Energy =                -543.6435978445659885
    Two-Electron Energy =                 226.4046073077414292
    DFT Exchange-Correlation Energy =     -23.4864920810725124
    Empirical Dispersion Energy =          -0.0048455900000000
    PCM Polarization Energy =               0.0000000000000000
    EFP Energy =                            0.0000000000000000
    Total Energy =                       -210.3913489483248327

  Mulliken Charges: (a.u.)
   Center  Symbol    Alpha    Beta     Spin     Total
       1     O     4.14020  4.14020  0.00000 -0.28040
       2     C     2.92567  2.92567  0.00000  0.14866
       3     C     2.98956  2.98956  0.00000  0.02088
       4     N     3.59192  3.59192  0.00000 -0.18384
       5     H     0.42991  0.42991  0.00000  0.14018
       6     H     0.49925  0.49925  0.00000  0.00150
       7     H     0.50488  0.50488  0.00000 -0.00975
       8     H     0.50002  0.50002  0.00000 -0.00005
       9     H     0.49058  0.49058  0.00000  0.01883
      10     H     0.46480  0.46480  0.00000  0.07039
      11     H     0.46321  0.46321  0.00000  0.07359

   Total alpha = 17.00000, Total beta = 17.00000, Total charge =  0.00000

*** Psi4 exiting successfully. Buy a developer a beer!
