                               Psi4 1.1 release

  ==> Input File <==

--------------------------------------------------------------------------
set_num_threads( 8 )
memory 2.000000 gb

set { reference rks }
set { basis cc-pVDZ }

molecule MOL {
    0 1
    noreorient
    nocom
    symmetry c1
    O    1.050400   0.042900  -0.048100
    C    2.474100   0.047400  -0.029000
    C    3.002600  -1.068900  -0.932000
    N    3.638284  -0.545852  -2.140232
    H    0.760400   0.728400   0.578000
    H    2.809900  -0.097900   1.003200
    H    2.817400   1.026800  -0.378600
    H    2.183132  -1.742945  -1.207454
    H    3.723980  -1.675673  -0.372990
    H    2.936584  -0.083850  -2.717859
    H    3.983892  -1.329205  -2.694456
}

set optking { frozen_dihedral = (" 1 2 3 4 ") }

energy, wfn = energy('B3LYP-D3', return_wfn=True)

import os
os.chdir(os.environ['HTMD_PSI4_WORKDIR'])

oeprop(wfn, 'DIPOLE', 'QUADRUPOLE', 'MULLIKEN_CHARGES')

with open('psi4out.xyz', 'w') as f:
    f.write('11 ' )
    f.write('%.12f\n' % energy)
    f.write(MOL.save_string_xyz())
--------------------------------------------------------------------------

    Molecular point group: c1

    Geometry (in Angstrom), charge = 0, multiplicity = 1:

       Center              X                  Y                   Z               Mass
    ------------   -----------------  -----------------  -----------------  -----------------
           O          1.050400000000     0.042900000000    -0.048100000000    15.994914619560
           C          2.474100000000     0.047400000000    -0.029000000000    12.000000000000
           C          3.002600000000    -1.068900000000    -0.932000000000    12.000000000000
           N          3.638284000000    -0.545852000000    -2.140232000000    14.003074004780
           H          0.760400000000     0.728400000000     0.578000000000     1.007825032070
           H          2.809900000000    -0.097900000000     1.003200000000     1.007825032070
           H          2.817400000000     1.026800000000    -0.378600000000     1.007825032070
           H          2.183132000000    -1.742945000000    -1.207454000000     1.007825032070
           H          3.723980000000    -1.675673000000    -0.372990000000     1.007825032070
           H          2.936584000000    -0.083850000000    -2.717859000000     1.007825032070
           H          3.983892000000    -1.329205000000    -2.694456000000     1.007825032070

  Charge       = 0
  Multiplicity = 1
  Basis Set: CC-PVDZ
    Blend: CC-PVDZ
   => B3LYP Composite Functional <=
  Basis Set: (CC-PVDZ AUX)
    Blend: CC-PVDZ-JKFIT

    Orbital Energies (a.u.)
    -----------------------

    Doubly Occupied:

       1A    -19.125308     2A    -14.300978     3A    -10.221796
       4A    -10.200741     5A     -1.008474     6A     -0.873673
       7A     -0.712600     8A     -0.595357     9A     -0.510369
      10A     -0.483836    11A     -0.447594    12A     -0.410653
      13A     -0.390498    14A     -0.363446    15A     -0.324028
      16A     -0.259791    17A     -0.227142

  @DF-RKS Final Energy:  -210.38755597664533

   => Energetics <=

    Nuclear Repulsion Energy =            131.3634358758168332
    One-Electron Energy =                -545.7050521840706097
    Two-Electron Energy =                 227.4492087548939878
    DFT Exchange-Correlation Energy =     -23.4903795332855303
    Empirical Dispersion Energy =          -0.0047688900000000
    PCM Polarization Energy =               0.0000000000000000
    EFP Energy =                            0.0000000000000000
    Total Energy =                       -210.3875559766453307

  Mulliken Charges: (a.u.)
   Center  Symbol    Alpha    Beta     Spin     Total
       1     O     4.14184  4.14184  0.00000 -0.28368
       2     C     2.92920  2.92920  0.00000  0.14160
       3     C     2.97924  2.97924  0.00000  0.04153
       4     N     3.59379  3.59379  0.00000 -0.18757
       5     H     0.43171  0.43171  0.00000  0.13659
       6     H     0.50263  0.50263  0.00000 -0.00526
       7     H     0.50003  0.50003  0.00000 -0.00005
       8     H     0.49695  0.49695  0.00000  0.00609
       9     H     0.49495  0.49495  0.00000  0.01010
      10     H     0.46334  0.46334  0.00000  0.07332
      11     H     0.46633  0.46633  0.00000  0.06733

   Total alpha = 17.00000, Total beta = 17.00000, Total charge = -0.00000

*** Psi4 exiting successfully. Buy a developer a beer!
