                               Psi4 1.1 release

  ==> Input File <==

--------------------------------------------------------------------------
set_num_threads(1)
set_memory('2004 MB')

set { scf_mem_safety_factor 0.7 }

set { reference rks }
set { basis cc-pVDZ }

molecule MOL {
    0 1
    noreorient
    nocom
    symmetry c1
    O    1.141000   0.017000   0.083000
    C    2.558000   0.086000  -0.005000
    C    3.192000  -0.789000   1.067000
    O    4.610000  -0.719000   0.979000
    H    0.789000   0.590000  -0.620000
    H    2.874000   1.128000   0.115000
    H    2.871000  -0.243000  -1.001000
    H    2.876000  -1.830000   0.947000
    H    2.879000  -0.459000   2.064000
    H    4.817724  -0.400377   0.083335
}

set optking { frozen_dihedral = (" 2 3 4 10 ") }

energy, wfn = energy('B3LYP-D3', return_wfn=True)

import os
os.chdir(os.environ['HTMD_PSI4_WORKDIR'])

oeprop(wfn, 'DIPOLE', 'QUADRUPOLE', 'MULLIKEN_CHARGES')

with open('psi4out.xyz', 'w') as f:
    f.write('10 ' )
    f.write('%.12f\n' % energy)
    f.write(MOL.save_string_xyz())
--------------------------------------------------------------------------

    Molecular point group: c1

    Geometry (in Angstrom), charge = 0, multiplicity = 1:

       Center              X                  Y                   Z               Mass
    ------------   -----------------  -----------------  -----------------  -----------------
           O          1.141000000000     0.017000000000     0.083000000000    15.994914619560
           C          2.558000000000     0.086000000000    -0.005000000000    12.000000000000
           C          3.192000000000    -0.789000000000     1.067000000000    12.000000000000
           O          4.610000000000    -0.719000000000     0.979000000000    15.994914619560
           H          0.789000000000     0.590000000000    -0.620000000000     1.007825032070
           H          2.874000000000     1.128000000000     0.115000000000     1.007825032070
           H          2.871000000000    -0.243000000000    -1.001000000000     1.007825032070
           H          2.876000000000    -1.830000000000     0.947000000000     1.007825032070
           H          2.879000000000    -0.459000000000     2.064000000000     1.007825032070
           H          4.817724000000    -0.400377000000     0.083335000000     1.007825032070

  Charge       = 0
  Multiplicity = 1
  Basis Set: CC-PVDZ
    Blend: CC-PVDZ
   => B3LYP Composite Functional <=
  Basis Set: (CC-PVDZ AUX)
    Blend: CC-PVDZ-JKFIT

    Orbital Energies (a.u.)
    -----------------------

    Doubly Occupied:

       1A    -19.139117     2A    -19.133457     3A    -10.236591
       4A    -10.226854     5A     -1.025454     6A     -1.012334
       7A     -0.733456     8A     -0.625257     9A     -0.518355
      10A     -0.489483    11A     -0.472913    12A     -0.424199
      13A     -0.399088    14A     -0.354284    15A     -0.323795
      16A     -0.272878    17A     -0.266133

  @DF-RKS Final Energy:  -230.25631629812008

   => Energetics <=

    Nuclear Repulsion Energy =            130.1125755496259444
    One-Electron Energy =                -571.7977677715904292
    Two-Electron Energy =                 235.9718734803084885
    DFT Exchange-Correlation Energy =     -24.5383583564640624
    Empirical Dispersion Energy =          -0.0046392000000000
    PCM Polarization Energy =               0.0000000000000000
    EFP Energy =                            0.0000000000000000
    Total Energy =                       -230.2563162981200833

  Mulliken Charges: (a.u.)
   Center  Symbol    Alpha    Beta     Spin     Total
       1     O     4.13683  4.13683  0.00000 -0.27367
       2     C     2.95994  2.95994  0.00000  0.08013
       3     C     2.92028  2.92028  0.00000  0.15944
       4     O     4.13696  4.13696  0.00000 -0.27392
       5     H     0.42798  0.42798  0.00000  0.14404
       6     H     0.49836  0.49836  0.00000  0.00327
       7     H     0.50260  0.50260  0.00000 -0.00520
       8     H     0.49503  0.49503  0.00000  0.00995
       9     H     0.48910  0.48910  0.00000  0.02180
      10     H     0.43292  0.43292  0.00000  0.13416

   Total alpha = 17.00000, Total beta = 17.00000, Total charge =  0.00000

*** Psi4 exiting successfully. Buy a developer a beer!
