                               Psi4 1.1 release

  ==> Input File <==

--------------------------------------------------------------------------
set_num_threads(1)
set_memory('2004 MB')

set { scf_mem_safety_factor 0.7 }

set { reference rks }
set { basis cc-pVDZ }

molecule MOL {
    0 1
    noreorient
    nocom
    symmetry c1
    O    1.141000   0.017000   0.083000
    C    2.558000   0.086000  -0.005000
    C    3.192000  -0.789000   1.067000
    O    4.610000  -0.719000   0.979000
    H    0.789000   0.590000  -0.620000
    H    2.874000   1.128000   0.115000
    H    2.871000  -0.243000  -1.001000
    H    2.876000  -1.830000   0.947000
    H    2.879000  -0.459000   2.064000
    H    4.823910   0.164825   0.632616
}

set optking { frozen_dihedral = (" 2 3 4 10 ") }

energy, wfn = energy('B3LYP-D3', return_wfn=True)

import os
os.chdir(os.environ['HTMD_PSI4_WORKDIR'])

oeprop(wfn, 'DIPOLE', 'QUADRUPOLE', 'MULLIKEN_CHARGES')

with open('psi4out.xyz', 'w') as f:
    f.write('10 ' )
    f.write('%.12f\n' % energy)
    f.write(MOL.save_string_xyz())
--------------------------------------------------------------------------

    Molecular point group: c1

    Geometry (in Angstrom), charge = 0, multiplicity = 1:

       Center              X                  Y                   Z               Mass
    ------------   -----------------  -----------------  -----------------  -----------------
           O          1.141000000000     0.017000000000     0.083000000000    15.994914619560
           C          2.558000000000     0.086000000000    -0.005000000000    12.000000000000
           C          3.192000000000    -0.789000000000     1.067000000000    12.000000000000
           O          4.610000000000    -0.719000000000     0.979000000000    15.994914619560
           H          0.789000000000     0.590000000000    -0.620000000000     1.007825032070
           H          2.874000000000     1.128000000000     0.115000000000     1.007825032070
           H          2.871000000000    -0.243000000000    -1.001000000000     1.007825032070
           H          2.876000000000    -1.830000000000     0.947000000000     1.007825032070
           H          2.879000000000    -0.459000000000     2.064000000000     1.007825032070
           H          4.823910000000     0.164825000000     0.632616000000     1.007825032070

  Charge       = 0
  Multiplicity = 1
  Basis Set: CC-PVDZ
    Blend: CC-PVDZ
   => B3LYP Composite Functional <=
  Basis Set: (CC-PVDZ AUX)
    Blend: CC-PVDZ-JKFIT

    Orbital Energies (a.u.)
    -----------------------

    Doubly Occupied:

       1A    -19.138249     2A    -19.133751     3A    -10.235188
       4A    -10.226985     5A     -1.024824     6A     -1.012152
       7A     -0.733104     8A     -0.623942     9A     -0.518159
      10A     -0.491917    11A     -0.468617    12A     -0.425365
      13A     -0.399000    14A     -0.352693    15A     -0.323929
      16A     -0.271997    17A     -0.266662

  @DF-RKS Final Energy:  -230.25702830919511

   => Energetics <=

    Nuclear Repulsion Energy =            130.0731766553801378
    One-Electron Energy =                -571.7347203815177181
    Two-Electron Energy =                 235.9473308697974687
    DFT Exchange-Correlation Energy =     -24.5381730028550145
    Empirical Dispersion Energy =          -0.0046424500000000
    PCM Polarization Energy =               0.0000000000000000
    EFP Energy =                            0.0000000000000000
    Total Energy =                       -230.2570283091951069

  Mulliken Charges: (a.u.)
   Center  Symbol    Alpha    Beta     Spin     Total
       1     O     4.13734  4.13734  0.00000 -0.27468
       2     C     2.95756  2.95756  0.00000  0.08489
       3     C     2.92120  2.92120  0.00000  0.15760
       4     O     4.13759  4.13759  0.00000 -0.27518
       5     H     0.42801  0.42801  0.00000  0.14398
       6     H     0.50411  0.50411  0.00000 -0.00822
       7     H     0.49803  0.49803  0.00000  0.00395
       8     H     0.48773  0.48773  0.00000  0.02454
       9     H     0.49590  0.49590  0.00000  0.00821
      10     H     0.43254  0.43254  0.00000  0.13492

   Total alpha = 17.00000, Total beta = 17.00000, Total charge =  0.00000

*** Psi4 exiting successfully. Buy a developer a beer!
