                               Psi4 1.1 release

  ==> Input File <==

--------------------------------------------------------------------------
set {
	reference rks
	basis cc-pvdz
}

set_num_threads( 8 )
memory 2 gb

molecule MOL {
0 1

O	 1.014300	 -0.002300	 0.060500
O	 2.462400	 -0.107500	 -0.002400
H	 0.965647	 0.321164	 0.980285
H	 2.655500	 0.713700	 0.488700

	symmetry c1
}
set optking { dynamic_level = 1 }
set optking {
	frozen_dihedral = ("
		3 1 2 4
	")
}

ee,wfn = energy('b3lyp-d3', return_wfn=True)
oeprop( wfn, 'DIPOLE', 'QUADRUPOLE', 'MULLIKEN_CHARGES')
f=open( 'psi4out.xyz', 'w' )
f.write( "4  " )
f.write( str(ee) + "\n" )
f.write( MOL.save_string_xyz() )
f.close()
--------------------------------------------------------------------------

    Molecular point group: c1

    Geometry (in Angstrom), charge = 0, multiplicity = 1:

       Center              X                  Y                   Z               Mass
    ------------   -----------------  -----------------  -----------------  -----------------
           O         -0.728330995457     0.018675436778    -0.010364591340    15.994914619560
           O          0.719769004543    -0.086524563222    -0.073264591340    15.994914619560
           H         -0.776983995457     0.342139436778     0.909420408660     1.007825032070
           H          0.912869004543     0.734675436778     0.417835408660     1.007825032070

  Charge       = 0
  Multiplicity = 1
  Basis Set: CC-PVDZ
    Blend: CC-PVDZ
   => B3LYP Composite Functional <=
  Basis Set: (CC-PVDZ AUX)
    Blend: CC-PVDZ-JKFIT

    Orbital Energies (a.u.)
    -----------------------

    Doubly Occupied:

       1A    -19.191838     2A    -19.191805     3A     -1.120481
       4A     -0.887420     5A     -0.553731     6A     -0.431461
       7A     -0.427086     8A     -0.343586     9A     -0.256589

  @DF-RKS Final Energy:  -151.53919190352050

   => Energetics <=

    Nuclear Repulsion Energy =             36.8698659909177806
    One-Electron Energy =                -281.6259400113361835
    Two-Electron Energy =                 107.6793489164685695
    DFT Exchange-Correlation Energy =     -14.4622777395707107
    Empirical Dispersion Energy =          -0.0001890600000000
    PCM Polarization Energy =               0.0000000000000000
    EFP Energy =                            0.0000000000000000
    Total Energy =                       -151.5391919035205319

  Mulliken Charges: (a.u.)
   Center  Symbol    Alpha    Beta     Spin     Total
       1     O     4.08085  4.08085  0.00000 -0.16169
       2     O     4.08083  4.08083  0.00000 -0.16166
       3     H     0.41915  0.41915  0.00000  0.16169
       4     H     0.41917  0.41917  0.00000  0.16166

   Total alpha =  9.00000, Total beta =  9.00000, Total charge = -0.00000

*** Psi4 exiting successfully. Buy a developer a beer!
