                               Psi4 1.1 release

  ==> Input File <==

--------------------------------------------------------------------------
set_num_threads(1)
set_memory(4203741184)

set { reference rks }
set { basis cc-pVDZ }

molecule MOL {
    0 1
    noreorient
    nocom
    symmetry c1
    O    1.050400   0.042900  -0.048100
    C    2.474100   0.047400  -0.029000
    C    3.002600  -1.068900  -0.932000
    N    4.462700  -1.072400  -1.006800
    H    0.783258  -0.435768  -0.851545
    H    2.809900  -0.097900   1.003200
    H    2.817400   1.026800  -0.378600
    H    2.581000  -0.963300  -1.938400
    H    2.653800  -2.036400  -0.553400
    H    4.779000  -0.221000  -1.470000
    H    4.758600  -1.842500  -1.606500
}

set optking { frozen_dihedral = (" 3 2 1 5 ") }

energy, wfn = energy('B3LYP-D3', return_wfn=True)

import os
os.chdir(os.environ['HTMD_PSI4_WORKDIR'])

oeprop(wfn, 'DIPOLE', 'QUADRUPOLE', 'MULLIKEN_CHARGES')

with open('psi4out.xyz', 'w') as f:
    f.write('11 ' )
    f.write('%.12f\n' % energy)
    f.write(MOL.save_string_xyz())
--------------------------------------------------------------------------

    Molecular point group: c1

    Geometry (in Angstrom), charge = 0, multiplicity = 1:

       Center              X                  Y                   Z               Mass
    ------------   -----------------  -----------------  -----------------  -----------------
           O          1.050400000000     0.042900000000    -0.048100000000    15.994914619560
           C          2.474100000000     0.047400000000    -0.029000000000    12.000000000000
           C          3.002600000000    -1.068900000000    -0.932000000000    12.000000000000
           N          4.462700000000    -1.072400000000    -1.006800000000    14.003074004780
           H          0.783258000000    -0.435768000000    -0.851545000000     1.007825032070
           H          2.809900000000    -0.097900000000     1.003200000000     1.007825032070
           H          2.817400000000     1.026800000000    -0.378600000000     1.007825032070
           H          2.581000000000    -0.963300000000    -1.938400000000     1.007825032070
           H          2.653800000000    -2.036400000000    -0.553400000000     1.007825032070
           H          4.779000000000    -0.221000000000    -1.470000000000     1.007825032070
           H          4.758600000000    -1.842500000000    -1.606500000000     1.007825032070

  Charge       = 0
  Multiplicity = 1
  Basis Set: CC-PVDZ
    Blend: CC-PVDZ
   => B3LYP Composite Functional <=
  Basis Set: (CC-PVDZ AUX)
    Blend: CC-PVDZ-JKFIT

    Orbital Energies (a.u.)
    -----------------------

    Doubly Occupied:

       1A    -19.126736     2A    -14.312135     3A    -10.224192
       4A    -10.212533     5A     -1.010577     6A     -0.884137
       7A     -0.712411     8A     -0.618575     9A     -0.506382
      10A     -0.471203    11A     -0.449991    12A     -0.445822
      13A     -0.396670    14A     -0.369809    15A     -0.321260
      16A     -0.262253    17A     -0.239633

  @DF-RKS Final Energy:  -210.39087688949789

   => Energetics <=

    Nuclear Repulsion Energy =            131.0888467670131661
    One-Electron Energy =                -544.9483764447726344
    Two-Electron Energy =                 226.9605784289579731
    DFT Exchange-Correlation Energy =     -23.4867847506963514
    Empirical Dispersion Energy =          -0.0051408900000000
    PCM Polarization Energy =               0.0000000000000000
    EFP Energy =                            0.0000000000000000
    Total Energy =                       -210.3908768894978891

  Mulliken Charges: (a.u.)
   Center  Symbol    Alpha    Beta     Spin     Total
       1     O     4.13853  4.13853  0.00000 -0.27706
       2     C     2.91350  2.91350  0.00000  0.17299
       3     C     3.01020  3.01020  0.00000 -0.02039
       4     N     3.58913  3.58913  0.00000 -0.17826
       5     H     0.43332  0.43332  0.00000  0.13336
       6     H     0.48916  0.48916  0.00000  0.02167
       7     H     0.50216  0.50216  0.00000 -0.00431
       8     H     0.50664  0.50664  0.00000 -0.01328
       9     H     0.48965  0.48965  0.00000  0.02070
      10     H     0.46406  0.46406  0.00000  0.07187
      11     H     0.46365  0.46365  0.00000  0.07270

   Total alpha = 17.00000, Total beta = 17.00000, Total charge = -0.00000

*** Psi4 exiting successfully. Buy a developer a beer!
