                               Psi4 1.1 release

  ==> Input File <==

--------------------------------------------------------------------------
set {
	reference rks
	basis cc-pvdz
}

set_num_threads( 8 )
memory 2 gb

molecule MOL {
0 1

O	 1.014300	 -0.002300	 0.060500
O	 2.462400	 -0.107500	 -0.002400
H	 0.930976	 0.757177	 -0.547161
H	 2.655500	 0.713700	 0.488700

	symmetry c1
}
set optking { dynamic_level = 1 }
set optking {
	frozen_dihedral = ("
		3 1 2 4
	")
}

ee,wfn = energy('b3lyp-d3', return_wfn=True)
oeprop( wfn, 'DIPOLE', 'QUADRUPOLE', 'MULLIKEN_CHARGES')
f=open( 'psi4out.xyz', 'w' )
f.write( "4  " )
f.write( str(ee) + "\n" )
f.write( MOL.save_string_xyz() )
f.close()
--------------------------------------------------------------------------

    Molecular point group: c1

    Geometry (in Angstrom), charge = 0, multiplicity = 1:

       Center              X                  Y                   Z               Mass
    ------------   -----------------  -----------------  -----------------  -----------------
           O         -0.727303446297     0.005753259979     0.034904534268    15.994914619560
           O          0.720796553703    -0.099446740021    -0.027995465732    15.994914619560
           H         -0.810627446297     0.765230259979    -0.572756465732     1.007825032070
           H          0.913896553703     0.721753259979     0.463104534268     1.007825032070

  Charge       = 0
  Multiplicity = 1
  Basis Set: CC-PVDZ
    Blend: CC-PVDZ
   => B3LYP Composite Functional <=
  Basis Set: (CC-PVDZ AUX)
    Blend: CC-PVDZ-JKFIT

    Orbital Energies (a.u.)
    -----------------------

    Doubly Occupied:

       1A    -19.190895     2A    -19.190857     3A     -1.117347
       4A     -0.887084     5A     -0.538461     6A     -0.458686
       7A     -0.423603     8A     -0.311289     9A     -0.274939

  @DF-RKS Final Energy:  -151.54570672946670

   => Energetics <=

    Nuclear Repulsion Energy =             36.8393801318084257
    One-Electron Energy =                -281.6001148312700479
    Two-Electron Energy =                 107.6767921291770165
    DFT Exchange-Correlation Energy =     -14.4615378291820669
    Empirical Dispersion Energy =          -0.0002263300000000
    PCM Polarization Energy =               0.0000000000000000
    EFP Energy =                            0.0000000000000000
    Total Energy =                       -151.5457067294667013

  Mulliken Charges: (a.u.)
   Center  Symbol    Alpha    Beta     Spin     Total
       1     O     4.08537  4.08537  0.00000 -0.17073
       2     O     4.08535  4.08535  0.00000 -0.17069
       3     H     0.41463  0.41463  0.00000  0.17073
       4     H     0.41465  0.41465  0.00000  0.17069

   Total alpha =  9.00000, Total beta =  9.00000, Total charge =  0.00000

*** Psi4 exiting successfully. Buy a developer a beer!
