                               Psi4 1.1 release

  ==> Input File <==

--------------------------------------------------------------------------
set {
	reference rks
	basis cc-pvdz
}

set_num_threads( 8 )
memory 2 gb

molecule MOL {
0 1

O	 1.014300	 -0.002300	 0.060500
O	 2.462400	 -0.107500	 -0.002400
H	 0.888798	 0.351959	 -0.840472
H	 2.655500	 0.713700	 0.488700

	symmetry c1
}
set optking { dynamic_level = 1 }
set optking {
	frozen_dihedral = ("
		3 1 2 4
	")
}

ee,wfn = energy('b3lyp-d3', return_wfn=True)
oeprop( wfn, 'DIPOLE', 'QUADRUPOLE', 'MULLIKEN_CHARGES')
f=open( 'psi4out.xyz', 'w' )
f.write( "4  " )
f.write( str(ee) + "\n" )
f.write( MOL.save_string_xyz() )
f.close()
--------------------------------------------------------------------------

    Molecular point group: c1

    Geometry (in Angstrom), charge = 0, multiplicity = 1:

       Center              X                  Y                   Z               Mass
    ------------   -----------------  -----------------  -----------------  -----------------
           O         -0.726053411154     0.017762761160     0.043597432414    15.994914619560
           O          0.722046588846    -0.087437238840    -0.019302567586    15.994914619560
           H         -0.851555411154     0.372021761160    -0.857374567586     1.007825032070
           H          0.915146588846     0.733762761160     0.471797432414     1.007825032070

  Charge       = 0
  Multiplicity = 1
  Basis Set: CC-PVDZ
    Blend: CC-PVDZ
   => B3LYP Composite Functional <=
  Basis Set: (CC-PVDZ AUX)
    Blend: CC-PVDZ-JKFIT

    Orbital Energies (a.u.)
    -----------------------

    Doubly Occupied:

       1A    -19.189037     2A    -19.188996     3A     -1.113881
       4A     -0.886610     5A     -0.520974     6A     -0.479937
       7A     -0.417443     8A     -0.299329     9A     -0.281761

  @DF-RKS Final Energy:  -151.54952881559197

   => Energetics <=

    Nuclear Repulsion Energy =             36.8126038169724197
    One-Electron Energy =                -281.5843119232003460
    Two-Electron Energy =                 107.6842765613919823
    DFT Exchange-Correlation Energy =     -14.4618067007560196
    Empirical Dispersion Energy =          -0.0002905700000000
    PCM Polarization Energy =               0.0000000000000000
    EFP Energy =                            0.0000000000000000
    Total Energy =                       -151.5495288155919695

  Mulliken Charges: (a.u.)
   Center  Symbol    Alpha    Beta     Spin     Total
       1     O     4.08935  4.08935  0.00000 -0.17870
       2     O     4.08933  4.08933  0.00000 -0.17866
       3     H     0.41065  0.41065  0.00000  0.17870
       4     H     0.41067  0.41067  0.00000  0.17866

   Total alpha =  9.00000, Total beta =  9.00000, Total charge =  0.00000

*** Psi4 exiting successfully. Buy a developer a beer!
