                               Psi4 1.1 release

  ==> Input File <==

--------------------------------------------------------------------------
set_num_threads( 8 )
memory 2.000000 gb

set { reference rks }
set { basis cc-pVDZ }

molecule MOL {
    0 1
    noreorient
    nocom
    symmetry c1
    O    1.014300  -0.002300   0.060500
    O    2.462400  -0.107500  -0.002400
    H    0.821200  -0.823600  -0.430600
    H    2.587922   0.518564  -0.740725
}

set optking { frozen_dihedral = (" 3 1 2 4 ") }

energy, wfn = energy('B3LYP-D3', return_wfn=True)

import os
os.chdir(os.environ['HTMD_PSI4_WORKDIR'])

oeprop(wfn, 'DIPOLE', 'QUADRUPOLE', 'MULLIKEN_CHARGES')

with open('psi4out.xyz', 'w') as f:
    f.write('4 ' )
    f.write('%.12f\n' % energy)
    f.write(MOL.save_string_xyz())
--------------------------------------------------------------------------

    Molecular point group: c1

    Geometry (in Angstrom), charge = 0, multiplicity = 1:

       Center              X                  Y                   Z               Mass
    ------------   -----------------  -----------------  -----------------  -----------------
           O          1.014300000000    -0.002300000000     0.060500000000    15.994914619560
           O          2.462400000000    -0.107500000000    -0.002400000000    15.994914619560
           H          0.821200000000    -0.823600000000    -0.430600000000     1.007825032070
           H          2.587922000000     0.518564000000    -0.740725000000     1.007825032070

  Charge       = 0
  Multiplicity = 1
  Basis Set: CC-PVDZ
    Blend: CC-PVDZ
   => B3LYP Composite Functional <=
  Basis Set: (CC-PVDZ AUX)
    Blend: CC-PVDZ-JKFIT

    Orbital Energies (a.u.)
    -----------------------

    Doubly Occupied:

       1A    -19.189036     2A    -19.188996     3A     -1.113880
       4A     -0.886610     5A     -0.520972     6A     -0.479938
       7A     -0.417442     8A     -0.299331     9A     -0.281758

  @DF-RKS Final Energy:  -151.54952904163414

   => Energetics <=

    Nuclear Repulsion Energy =             36.8126033824260119
    One-Electron Energy =                -281.5843552167664825
    Two-Electron Energy =                 107.6843249220944330
    DFT Exchange-Correlation Energy =     -14.4618115493881145
    Empirical Dispersion Energy =          -0.0002905800000000
    PCM Polarization Energy =               0.0000000000000000
    EFP Energy =                            0.0000000000000000
    Total Energy =                       -151.5495290416341447

  Mulliken Charges: (a.u.)
   Center  Symbol    Alpha    Beta     Spin     Total
       1     O     4.08935  4.08935  0.00000 -0.17870
       2     O     4.08933  4.08933  0.00000 -0.17866
       3     H     0.41065  0.41065  0.00000  0.17870
       4     H     0.41067  0.41067  0.00000  0.17866

   Total alpha =  9.00000, Total beta =  9.00000, Total charge = -0.00000

*** Psi4 exiting successfully. Buy a developer a beer!
