                               Psi4 1.1 release

  ==> Input File <==

--------------------------------------------------------------------------
set_num_threads(1)
set_memory(4203741184)

set { reference rks }
set { basis cc-pVDZ }

molecule MOL {
    0 1
    noreorient
    nocom
    symmetry c1
    O    1.050400   0.042900  -0.048100
    C    2.474100   0.047400  -0.029000
    C    3.002600  -1.068900  -0.932000
    N    4.462700  -1.072400  -1.006800
    H    0.760400   0.728400   0.578000
    H    2.809900  -0.097900   1.003200
    H    2.817400   1.026800  -0.378600
    H    2.581000  -0.963300  -1.938400
    H    2.653800  -2.036400  -0.553400
    H    4.807685  -2.014645  -0.826131
    H    4.831136  -0.491413  -0.253832
}

set optking { frozen_dihedral = (" 2 3 4 10 ") }

energy, wfn = energy('B3LYP-D3', return_wfn=True)

import os
os.chdir(os.environ['HTMD_PSI4_WORKDIR'])

oeprop(wfn, 'DIPOLE', 'QUADRUPOLE', 'MULLIKEN_CHARGES')

with open('psi4out.xyz', 'w') as f:
    f.write('11 ' )
    f.write('%.12f\n' % energy)
    f.write(MOL.save_string_xyz())
--------------------------------------------------------------------------

    Molecular point group: c1

    Geometry (in Angstrom), charge = 0, multiplicity = 1:

       Center              X                  Y                   Z               Mass
    ------------   -----------------  -----------------  -----------------  -----------------
           O          1.050400000000     0.042900000000    -0.048100000000    15.994914619560
           C          2.474100000000     0.047400000000    -0.029000000000    12.000000000000
           C          3.002600000000    -1.068900000000    -0.932000000000    12.000000000000
           N          4.462700000000    -1.072400000000    -1.006800000000    14.003074004780
           H          0.760400000000     0.728400000000     0.578000000000     1.007825032070
           H          2.809900000000    -0.097900000000     1.003200000000     1.007825032070
           H          2.817400000000     1.026800000000    -0.378600000000     1.007825032070
           H          2.581000000000    -0.963300000000    -1.938400000000     1.007825032070
           H          2.653800000000    -2.036400000000    -0.553400000000     1.007825032070
           H          4.807685000000    -2.014645000000    -0.826131000000     1.007825032070
           H          4.831136000000    -0.491413000000    -0.253832000000     1.007825032070

  Charge       = 0
  Multiplicity = 1
  Basis Set: CC-PVDZ
    Blend: CC-PVDZ
   => B3LYP Composite Functional <=
  Basis Set: (CC-PVDZ AUX)
    Blend: CC-PVDZ-JKFIT

    Orbital Energies (a.u.)
    -----------------------

    Doubly Occupied:

       1A    -19.130524     2A    -14.303963     3A    -10.229567
       4A    -10.201166     5A     -1.012991     6A     -0.877737
       7A     -0.712652     8A     -0.603697     9A     -0.509087
      10A     -0.481376    11A     -0.464865    12A     -0.411341
      13A     -0.385682    14A     -0.369802    15A     -0.326641
      16A     -0.264600    17A     -0.229853

  @DF-RKS Final Energy:  -210.38765474799138

   => Energetics <=

    Nuclear Repulsion Energy =            130.7211051747352997
    One-Electron Energy =                -544.3035981218082497
    Two-Electron Energy =                 226.6874706925089811
    DFT Exchange-Correlation Energy =     -23.4877130734273898
    Empirical Dispersion Energy =          -0.0049194200000000
    PCM Polarization Energy =               0.0000000000000000
    EFP Energy =                            0.0000000000000000
    Total Energy =                       -210.3876547479913768

  Mulliken Charges: (a.u.)
   Center  Symbol    Alpha    Beta     Spin     Total
       1     O     4.13727  4.13727  0.00000 -0.27454
       2     C     2.94259  2.94259  0.00000  0.11482
       3     C     2.97786  2.97786  0.00000  0.04428
       4     N     3.59146  3.59146  0.00000 -0.18293
       5     H     0.43019  0.43019  0.00000  0.13962
       6     H     0.50359  0.50359  0.00000 -0.00718
       7     H     0.49720  0.49720  0.00000  0.00560
       8     H     0.48991  0.48991  0.00000  0.02019
       9     H     0.49782  0.49782  0.00000  0.00436
      10     H     0.46271  0.46271  0.00000  0.07459
      11     H     0.46940  0.46940  0.00000  0.06119

   Total alpha = 17.00000, Total beta = 17.00000, Total charge = -0.00000

*** Psi4 exiting successfully. Buy a developer a beer!
