                               Psi4 1.1 release

  ==> Input File <==

--------------------------------------------------------------------------
set_num_threads(1)
set_memory(4203741184)

set { reference rks }
set { basis cc-pVDZ }

molecule MOL {
    0 1
    noreorient
    nocom
    symmetry c1
    O    1.050400   0.042900  -0.048100
    C    2.474100   0.047400  -0.029000
    C    3.002600  -1.068900  -0.932000
    N    2.098116  -1.351854  -2.045259
    H    0.760400   0.728400   0.578000
    H    2.809900  -0.097900   1.003200
    H    2.817400   1.026800  -0.378600
    H    3.160144  -1.979819  -0.342810
    H    3.985534  -0.783045  -1.323388
    H    1.224597  -1.732151  -1.682186
    H    2.505809  -2.089332  -2.619858
}

set optking { frozen_dihedral = (" 1 2 3 4 ") }

energy, wfn = energy('B3LYP-D3', return_wfn=True)

import os
os.chdir(os.environ['HTMD_PSI4_WORKDIR'])

oeprop(wfn, 'DIPOLE', 'QUADRUPOLE', 'MULLIKEN_CHARGES')

with open('psi4out.xyz', 'w') as f:
    f.write('11 ' )
    f.write('%.12f\n' % energy)
    f.write(MOL.save_string_xyz())
--------------------------------------------------------------------------

    Molecular point group: c1

    Geometry (in Angstrom), charge = 0, multiplicity = 1:

       Center              X                  Y                   Z               Mass
    ------------   -----------------  -----------------  -----------------  -----------------
           O          1.050400000000     0.042900000000    -0.048100000000    15.994914619560
           C          2.474100000000     0.047400000000    -0.029000000000    12.000000000000
           C          3.002600000000    -1.068900000000    -0.932000000000    12.000000000000
           N          2.098116000000    -1.351854000000    -2.045259000000    14.003074004780
           H          0.760400000000     0.728400000000     0.578000000000     1.007825032070
           H          2.809900000000    -0.097900000000     1.003200000000     1.007825032070
           H          2.817400000000     1.026800000000    -0.378600000000     1.007825032070
           H          3.160144000000    -1.979819000000    -0.342810000000     1.007825032070
           H          3.985534000000    -0.783045000000    -1.323388000000     1.007825032070
           H          1.224597000000    -1.732151000000    -1.682186000000     1.007825032070
           H          2.505809000000    -2.089332000000    -2.619858000000     1.007825032070

  Charge       = 0
  Multiplicity = 1
  Basis Set: CC-PVDZ
    Blend: CC-PVDZ
   => B3LYP Composite Functional <=
  Basis Set: (CC-PVDZ AUX)
    Blend: CC-PVDZ-JKFIT

    Orbital Energies (a.u.)
    -----------------------

    Doubly Occupied:

       1A    -19.127139     2A    -14.293092     3A    -10.223784
       4A    -10.201439     5A     -1.010298     6A     -0.865901
       7A     -0.714285     8A     -0.591224     9A     -0.514765
      10A     -0.472666    11A     -0.452749    12A     -0.407659
      13A     -0.391197    14A     -0.356953    15A     -0.326361
      16A     -0.262959    17A     -0.218248

  @DF-RKS Final Energy:  -210.38784811803254

   => Energetics <=

    Nuclear Repulsion Energy =            133.8767700448740641
    One-Electron Energy =                -550.7842604936138287
    Two-Electron Energy =                 230.0130994926927031
    DFT Exchange-Correlation Energy =     -23.4884552719855115
    Empirical Dispersion Energy =          -0.0050018900000000
    PCM Polarization Energy =               0.0000000000000000
    EFP Energy =                            0.0000000000000000
    Total Energy =                       -210.3878481180325366

  Mulliken Charges: (a.u.)
   Center  Symbol    Alpha    Beta     Spin     Total
       1     O     4.13847  4.13847  0.00000 -0.27694
       2     C     2.92499  2.92499  0.00000  0.15003
       3     C     2.98648  2.98648  0.00000  0.02704
       4     N     3.58743  3.58743  0.00000 -0.17487
       5     H     0.42982  0.42982  0.00000  0.14037
       6     H     0.50391  0.50391  0.00000 -0.00783
       7     H     0.50023  0.50023  0.00000 -0.00046
       8     H     0.50460  0.50460  0.00000 -0.00920
       9     H     0.49472  0.49472  0.00000  0.01056
      10     H     0.46169  0.46169  0.00000  0.07661
      11     H     0.46765  0.46765  0.00000  0.06469

   Total alpha = 17.00000, Total beta = 17.00000, Total charge = -0.00000

*** Psi4 exiting successfully. Buy a developer a beer!
