                               Psi4 1.1 release

  ==> Input File <==

--------------------------------------------------------------------------
set {
	reference rks
	basis cc-pvdz
}

set_num_threads( 8 )
memory 2 gb

molecule MOL {
0 1

O	 1.014300	 -0.002300	 0.060500
O	 2.462400	 -0.107500	 -0.002400
H	 0.983544	 0.736112	 0.698310
H	 2.655500	 0.713700	 0.488700

	symmetry c1
}
set optking { dynamic_level = 1 }
set optking {
	frozen_dihedral = ("
		3 1 2 4
	")
}

ee,wfn = optimize('b3lyp-d3', return_wfn=True)
oeprop( wfn, 'DIPOLE', 'QUADRUPOLE', 'MULLIKEN_CHARGES')
f=open( 'psi4out.xyz', 'w' )
f.write( "4  " )
f.write( str(ee) + "\n" )
f.write( MOL.save_string_xyz() )
f.close()
--------------------------------------------------------------------------

    Molecular point group: c1
  Charge       = 0
  Multiplicity = 1
  Basis Set: CC-PVDZ
    Blend: CC-PVDZ
   => B3LYP Composite Functional <=
  Basis Set: (CC-PVDZ AUX)
    Blend: CC-PVDZ-JKFIT
  @DF-RKS Final Energy:  -151.53387136985711
    Total Energy =                       -151.5338713698571098
    Molecular point group: c1
  Basis Set: CC-PVDZ
    Blend: CC-PVDZ
  Basis Set: (CC-PVDZ AUX)
    Blend: CC-PVDZ-JKFIT
   => B3LYP Composite Functional <=
  Basis Set: CC-PVDZ
    Blend: CC-PVDZ
   => B3LYP Composite Functional <=
  Basis Set: (CC-PVDZ AUX)
    Blend: CC-PVDZ-JKFIT
  @DF-RKS Final Energy:  -151.53715751357007
    Total Energy =                       -151.5371575135700937
  Basis Set: CC-PVDZ
    Blend: CC-PVDZ
  Basis Set: (CC-PVDZ AUX)
  @DF-RKS Final Energy:  -151.53879816479713
    Total Energy =                       -151.5387981647971287
   => B3LYP Composite Functional <=
  Basis Set: (CC-PVDZ AUX)
    Blend: CC-PVDZ-JKFIT
  @DF-RKS Final Energy:  -151.53886404914522
    Total Energy =                       -151.5388640491452179
  Basis Set: CC-PVDZ
    Blend: CC-PVDZ
  Basis Set: (CC-PVDZ AUX)
    Blend: CC-PVDZ-JKFIT
   => B3LYP Composite Functional <=
  Charge       = 0
  Multiplicity = 1
  Basis Set: CC-PVDZ
    Blend: CC-PVDZ
   => B3LYP Composite Functional <=
  Basis Set: (CC-PVDZ AUX)
    Blend: CC-PVDZ-JKFIT

    Orbital Energies (a.u.)
    -----------------------

    Doubly Occupied:

       1A    -19.190018     2A    -19.189989     3A     -1.107734
       4A     -0.894230     5A     -0.563636     6A     -0.418288
       7A     -0.394910     8A     -0.371565     9A     -0.246819

  @DF-RKS Final Energy:  -151.53886928711586

   => Energetics <=

    Nuclear Repulsion Energy =             36.5054252745521310
    One-Electron Energy =                -280.9530428712613457
    Two-Electron Energy =                 107.3662230318215478
    DFT Exchange-Correlation Energy =     -14.4571756422281741
    Empirical Dispersion Energy =          -0.0002990800000000
    PCM Polarization Energy =               0.0000000000000000
    EFP Energy =                            0.0000000000000000
    Total Energy =                       -151.5388692871158298
    Molecular point group: c1
  Basis Set: CC-PVDZ
    Blend: CC-PVDZ
  Basis Set: (CC-PVDZ AUX)
    Blend: CC-PVDZ-JKFIT
   => B3LYP Composite Functional <=

  -Total Gradient:
     Atom            X                  Y                   Z
    ------   -----------------  -----------------  -----------------
       1       -0.000148566484    -0.001599134490     0.001886003544
       2        0.000114522132     0.001273656425    -0.002121537452
       3        0.000091398856     0.001250034540    -0.001388881760
       4       -0.000056703339    -0.000918302339     0.001628942646

  **** Optimization is complete! (in 5 steps) ****
    Final optimized geometry and variables:
    Molecular point group: c1

    Geometry (in Angstrom), charge = 0, multiplicity = 1:

    O           -0.732250717823     0.003722644574     0.004932826599
    O            0.722895885182    -0.093570104777    -0.069967486568
    H           -0.896476380460     0.729708745731     0.632581453605
    H            1.044944363099     0.696235648387     0.399565794579

  Mulliken Charges: (a.u.)
   Center  Symbol    Alpha    Beta     Spin     Total
       1     O     4.08069  4.08069  0.00000 -0.16137
       2     O     4.08069  4.08069  0.00000 -0.16137
       3     H     0.41931  0.41931  0.00000  0.16137
       4     H     0.41931  0.41931  0.00000  0.16137

   Total alpha =  9.00000, Total beta =  9.00000, Total charge = -0.00000

*** Psi4 exiting successfully. Buy a developer a beer!
