                               Psi4 1.1 release

  ==> Input File <==

--------------------------------------------------------------------------
set {
	reference rks
	basis 6-31G*
}

set_num_threads( 8 )
memory 2 gb

molecule MOL {
1 1

C	 -0.000000	 -0.000000	 -0.191639
C	 0.813320	 -0.909246	 0.510391
C	 0.812574	 -0.901328	 1.901670
C	 -0.000000	 0.000000	 2.596333
C	 -0.812574	 0.901328	 1.901670
C	 -0.813320	 0.909247	 0.510391
C	 -0.000000	 -0.000000	 -1.658508
H	 1.477884	 -1.581814	 -0.024627
H	 1.452183	 -1.589943	 2.444112
H	 -0.000000	 0.000000	 3.681982
H	 -1.452184	 1.589943	 2.444112
H	 -1.477885	 1.581814	 -0.024627
N	 -0.712589	 -0.905950	 -2.322235
N	 0.712590	 0.905950	 -2.322235
H	 0.673432	 1.006470	 -3.329771
H	 1.377190	 1.485970	 -1.827091
H	 -1.377189	 -1.485970	 -1.827091
H	 -0.673431	 -1.006470	 -3.329771

	symmetry c1
}
set optking { dynamic_level = 1 }
set optking {
	frozen_dihedral = ("
		2 1 7 13
	")
}

ee,wfn = optimize('b3lyp-d3', return_wfn=True)
oeprop( wfn, 'DIPOLE', 'QUADRUPOLE', 'MULLIKEN_CHARGES')
f=open( 'psi4out.xyz', 'w' )
f.write( "18  " )
f.write( str(ee) + "\n" )
f.write( MOL.save_string_xyz() )
f.close()
--------------------------------------------------------------------------

    Molecular point group: c1
  Charge       = 1
  Multiplicity = 1
  Basis Set: 6-31G*
    Blend: 6-31G*
   => B3LYP Composite Functional <=
  Basis Set: (6-31G* AUX)
    Blend: CC-PVDZ-JKFIT
  @DF-RKS Final Energy:  -381.46298606779186
    Total Energy =                       -381.4629860677918032
    Molecular point group: c1
  Basis Set: 6-31G*
    Blend: 6-31G*
  Basis Set: (6-31G* AUX)
    Blend: CC-PVDZ-JKFIT
   => B3LYP Composite Functional <=
  Basis Set: 6-31G*
    Blend: 6-31G*
   => B3LYP Composite Functional <=
  Basis Set: (6-31G* AUX)
    Blend: CC-PVDZ-JKFIT
  @DF-RKS Final Energy:  -381.46437722689495
    Total Energy =                       -381.4643772268949533
  Basis Set: 6-31G*
    Blend: 6-31G*
  Basis Set: (6-31G* AUX)
  @DF-RKS Final Energy:  -381.46463207464677
    Total Energy =                       -381.4646320746467723
  @DF-RKS Final Energy:  -381.46465132055982
    Total Energy =                       -381.4646513205598808
   => B3LYP Composite Functional <=
  Basis Set: (6-31G* AUX)
    Blend: CC-PVDZ-JKFIT
  @DF-RKS Final Energy:  -381.46465547647034
    Total Energy =                       -381.4646554764702842
  Basis Set: 6-31G*
    Blend: 6-31G*
  Basis Set: (6-31G* AUX)
    Blend: CC-PVDZ-JKFIT
   => B3LYP Composite Functional <=
  Charge       = 1
  Multiplicity = 1
  Basis Set: 6-31G*
    Blend: 6-31G*
   => B3LYP Composite Functional <=
  Basis Set: (6-31G* AUX)
    Blend: CC-PVDZ-JKFIT

    Orbital Energies (a.u.)
    -----------------------

    Doubly Occupied:

       1A    -14.576169     2A    -14.576039     3A    -10.502885
       4A    -10.368079     5A    -10.348969     6A    -10.348862
       7A    -10.333790     8A    -10.333558     9A    -10.332879
      10A     -1.190479    11A     -1.099599    12A     -1.008807
      13A     -0.921991    14A     -0.895078    15A     -0.845546
      16A     -0.788100    17A     -0.765757    18A     -0.754638
      19A     -0.728116    20A     -0.691758    21A     -0.666885
      22A     -0.623534    23A     -0.615886    24A     -0.577724
      25A     -0.573090    26A     -0.567282    27A     -0.515479
      28A     -0.496617    29A     -0.491584    30A     -0.479917
      31A     -0.404620    32A     -0.398286

  @DF-RKS Final Energy:  -381.46465576352568

   => Energetics <=

    Nuclear Repulsion Energy =            416.2501665950204597
    One-Electron Energy =               -1327.8394972870551101
    Two-Electron Energy =                 574.5404358529743831
    DFT Exchange-Correlation Energy =     -44.4040793644654315
    Empirical Dispersion Energy =          -0.0116815600000000
    PCM Polarization Energy =               0.0000000000000000
    EFP Energy =                            0.0000000000000000
    Total Energy =                       -381.4646557635256841
    Molecular point group: c1
  Basis Set: 6-31G*
    Blend: 6-31G*
  Basis Set: (6-31G* AUX)
    Blend: CC-PVDZ-JKFIT
   => B3LYP Composite Functional <=

  -Total Gradient:
     Atom            X                  Y                   Z
    ------   -----------------  -----------------  -----------------
       1       -0.004526588326    -0.002207874552    -0.000075648378
       2        0.002300219099     0.002096884333     0.000056623584
       3        0.000005688502     0.000006113105     0.000000894219
       4        0.000009886035     0.000006498905    -0.000006495214
       5       -0.000000297424     0.000000965113     0.000001781960
       6       -0.000005038354     0.000001754370    -0.000005603353
       7        0.004843924434    -0.001950050890     0.000020525531
       8        0.000003937830     0.000002997816     0.000000033003
       9       -0.000002249330     0.000001196896     0.000000882869
      10       -0.000003986303    -0.000002343541     0.000000853026
      11        0.000002265036     0.000001201727     0.000001589213
      12       -0.000002856029    -0.000002214933    -0.000002475595
      13       -0.002618508479     0.002027927890     0.000008414320
      14       -0.000024767461     0.000016838077    -0.000002706525
      15        0.000010921019    -0.000008417142     0.000010243827
      16        0.000004557210    -0.000010867388    -0.000002934028
      17        0.000012478537     0.000020800803    -0.000016984798
      18       -0.000001637228     0.000000928716    -0.000001255290

  **** Optimization is complete! (in 6 steps) ****
    Final optimized geometry and variables:
    Molecular point group: c1

    Geometry (in Angstrom), charge = 1, multiplicity = 1:

    C           -0.021491339883    -0.029566117822    -0.184747140847
    C            0.787136461734    -0.941010382632     0.509303519786
    C            0.798093937479    -0.912171069535     1.903182257718
    C            0.013624923112     0.017205325748     2.591044713378
    C           -0.780540388454     0.930109096304     1.891671178872
    C           -0.793453495171     0.922068850480     0.497819475344
    C            0.003009032581    -0.013677079905    -1.667592474717
    H            1.399141719994    -1.657969918903    -0.030726146076
    H            1.421726175614    -1.612438422397     2.449587805938
    H            0.023823989903     0.032795472686     3.676497388200
    H           -1.387397105142     1.651349581051     2.429666576770
    H           -1.405644321094     1.631944948730    -0.051215342457
    N           -0.694001382689    -0.919603982127    -2.335457369925
    N            0.684690669710     0.936517076305    -2.288127154500
    H            0.710739276531     1.040558489780    -3.297308021496
    H            1.223716106442     1.594469530393    -1.738705762493
    H           -1.231663267541    -1.605593035833    -1.820035734511
    H           -0.701031492035    -0.988136052527    -3.348003649339

  Mulliken Charges: (a.u.)
   Center  Symbol    Alpha    Beta     Spin     Total
       1     C     2.99251  2.99251  0.00000  0.01497
       2     C     3.07107  3.07107  0.00000 -0.14213
       3     C     3.06248  3.06248  0.00000 -0.12495
       4     C     3.05360  3.05360  0.00000 -0.10721
       5     C     3.06304  3.06304  0.00000 -0.12609
       6     C     3.07128  3.07128  0.00000 -0.14255
       7     C     2.74677  2.74677  0.00000  0.50646
       8     H     0.41356  0.41356  0.00000  0.17288
       9     H     0.40732  0.40732  0.00000  0.18537
      10     H     0.40668  0.40668  0.00000  0.18663
      11     H     0.40730  0.40730  0.00000  0.18541
      12     H     0.41363  0.41363  0.00000  0.17274
      13     N     3.84480  3.84480  0.00000 -0.68960
      14     N     3.84496  3.84496  0.00000 -0.68992
      15     H     0.30500  0.30500  0.00000  0.39000
      16     H     0.29556  0.29556  0.00000  0.40888
      17     H     0.29536  0.29536  0.00000  0.40927
      18     H     0.30508  0.30508  0.00000  0.38984

   Total alpha = 32.00000, Total beta = 32.00000, Total charge =  1.00000

*** Psi4 exiting successfully. Buy a developer a beer!
