                              Psi4 1.0.54 Driver

  ==> Input File <==

--------------------------------------------------------------------------
set_num_threads(1)
set_memory(3145728000)

set { reference rks }
set { basis 6-31G* }

molecule MOL {
    1 1
    noreorient
    nocom
    symmetry c1
    C    0.000000   0.000000  -0.177864
    C    0.036678   1.219374   0.524165
    C    0.031764   1.213119   1.915444
    C   -0.000000  -0.000000   2.610107
    C   -0.031764  -1.213119   1.915444
    C   -0.036677  -1.219374   0.524165
    C    0.000000  -0.000000  -1.644734
    H    0.018170   2.164705  -0.010853
    H    0.042402   2.152895   2.457886
    H   -0.000000  -0.000000   3.695756
    H   -0.042402  -2.152895   2.457886
    H   -0.018170  -2.164705  -0.010853
    N   -0.712590  -0.905950  -2.308460
    N    0.712590   0.905950  -2.308461
    H    0.673432   1.006469  -3.315997
    H    1.377190   1.485970  -1.813317
    H   -0.256768  -1.723526  -2.691971
    H   -1.720586  -0.854981  -2.398525
}

set optking { frozen_dihedral = (" 1 7 13 17 ") }

set optking { dynamic_level = 1
 geom_maxiter = 250
 print_trajectory_xyz_file = True }

energy, wfn = optimize('B3LYP-D3', return_wfn=True)

import os
os.chdir(os.environ['HTMD_PSI4_WORKDIR'])

oeprop(wfn, 'DIPOLE', 'QUADRUPOLE', 'MULLIKEN_CHARGES')

with open('psi4out.xyz', 'w') as f:
    f.write('18 ' )
    f.write('%.12f\n' % energy)
    f.write(MOL.save_string_xyz())
--------------------------------------------------------------------------

    Molecular point group: c1
  Charge       = 1
  Multiplicity = 1
  Basis Set: 6-31G*
   => B3LYP-D3 Composite Functional <=
  Basis Set:
  @DF-RKS Final Energy:  -381.43158952038829
    Total Energy =                       -381.4315895203883997
    Molecular point group: c1
  Basis Set: 6-31G*
  Basis Set:
   => B3LYP-D3 Composite Functional <=
  Basis Set: 6-31G*
   => B3LYP-D3 Composite Functional <=
  Basis Set:
  @DF-RKS Final Energy:  -381.44135414833357
    Total Energy =                       -381.4413541483335734
  Basis Set: 6-31G*
  Basis Set:
   => B3LYP-D3 Composite Functional <=
  Basis Set: 6-31G*
   => B3LYP-D3 Composite Functional <=
  Basis Set:
  @DF-RKS Final Energy:  -381.44669063702145
    Total Energy =                       -381.4466906370214474
  Basis Set: 6-31G*
  Basis Set:
  @DF-RKS Final Energy:  -380.18322728804287
    Total Energy =                       -380.1832272880428718
  @DF-RKS Final Energy:  -378.81136314411299
    Total Energy =                       -378.8113631441129314
  @DF-RKS Final Energy:  -380.18322728804344
    Total Energy =                       -380.1832272880434402
  @DF-RKS Final Energy:  -380.28151876475539
    Total Energy =                       -380.2815187647552193
  @DF-RKS Final Energy:  -380.37714834827239
    Total Energy =                       -380.3771483482724989
  @DF-RKS Final Energy:  -380.47383474588179
    Total Energy =                       -380.4738347458816747
  @DF-RKS Final Energy:  -380.56857443384166
    Total Energy =                       -380.5685744338416043
  @DF-RKS Final Energy:  -380.59581027087256
    Total Energy =                       -380.5958102708726187
  @DF-RKS Final Energy:  -380.69018022638943
    Total Energy =                       -380.6901802263893728
  @DF-RKS Final Energy:  -380.78109966823155
    Total Energy =                       -380.7810996682314340
  @DF-RKS Final Energy:  -380.86990066425369
    Total Energy =                       -380.8699006642536915
  @DF-RKS Final Energy:  -380.95482519487928
    Total Energy =                       -380.9548251948792199
  @DF-RKS Final Energy:  -381.03520696678862
    Total Energy =                       -381.0352069667885644
  @DF-RKS Final Energy:  -381.11036075155596
    Total Energy =                       -381.1103607515559020
  @DF-RKS Final Energy:  -381.17959827524015
    Total Energy =                       -381.1795982752403233
  @DF-RKS Final Energy:  -381.24222153793733
    Total Energy =                       -381.2422215379373256
  @DF-RKS Final Energy:  -381.29753852750599
    Total Energy =                       -381.2975385275059921
  @DF-RKS Final Energy:  -381.45035729049067
    Total Energy =                       -381.4503572904907855
  @DF-RKS Final Energy:  -381.45179408109846
    Total Energy =                       -381.4517940810984555
  @DF-RKS Final Energy:  -381.45241820050381
    Total Energy =                       -381.4524182005037574
  @DF-RKS Final Energy:  -381.45268017697578
    Total Energy =                       -381.4526801769757185
  @DF-RKS Final Energy:  -381.45275383433147
    Total Energy =                       -381.4527538343314745
  @DF-RKS Final Energy:  -381.45277043455400
    Total Energy =                       -381.4527704345540542
  @DF-RKS Final Energy:  -381.45278650930970
    Total Energy =                       -381.4527865093097603
  @DF-RKS Final Energy:  -381.45279100450904
    Total Energy =                       -381.4527910045090380
  @DF-RKS Final Energy:  -381.45272074142093
    Total Energy =                       -381.4527207414209897
  @DF-RKS Final Energy:  -381.45277802884391
    Total Energy =                       -381.4527780288439658
  @DF-RKS Final Energy:  -381.45279100450938
    Total Energy =                       -381.4527910045093790
  @DF-RKS Final Energy:  -381.45281960260291
    Total Energy =                       -381.4528196026028581
  @DF-RKS Final Energy:  -381.45282505222434
    Total Energy =                       -381.4528250522243411
  @DF-RKS Final Energy:  -381.45277502413882
    Total Energy =                       -381.4527750241388162
  @DF-RKS Final Energy:  -381.45281468311799
    Total Energy =                       -381.4528146831179924
  @DF-RKS Final Energy:  -381.45282970228789
    Total Energy =                       -381.4528297022878860
  @DF-RKS Final Energy:  -381.45279700246857
    Total Energy =                       -381.4527970024684578
   => B3LYP-D3 Composite Functional <=
  Basis Set:
  @DF-RKS Final Energy:  -381.45282255858024
    Total Energy =                       -381.4528225585802375
  Basis Set: 6-31G*
  Basis Set:
   => B3LYP-D3 Composite Functional <=
  Basis Set: 6-31G*
   => B3LYP-D3 Composite Functional <=
  Basis Set:
  @DF-RKS Final Energy:  -381.45282970228959
    Total Energy =                       -381.4528297022896481
  Basis Set: 6-31G*
  Basis Set:
   => B3LYP-D3 Composite Functional <=
  Charge       = 1
  Multiplicity = 1
  Basis Set: 6-31G*
   => B3LYP-D3 Composite Functional <=
  Basis Set:

    Orbital Energies (a.u.)
    -----------------------

    Doubly Occupied:

       1A    -14.577490     2A    -14.541533     3A    -10.496900
       4A    -10.379804     5A    -10.366579     6A    -10.365818
       7A    -10.355053     8A    -10.349217     9A    -10.349051
      10A     -1.179173    11A     -1.081863    12A     -1.021998
      13A     -0.931918    14A     -0.911221    15A     -0.843157
      16A     -0.785073    17A     -0.773141    18A     -0.739899
      19A     -0.720993    20A     -0.680860    21A     -0.673905
      22A     -0.636500    23A     -0.614000    24A     -0.591055
      25A     -0.585969    26A     -0.563563    27A     -0.524471
      28A     -0.515234    29A     -0.506044    30A     -0.468091
      31A     -0.422081    32A     -0.414734

  @DF-RKS Final Energy:  -381.45283023530322

   => Energetics <=

    Nuclear Repulsion Energy =            416.2264354074248445
    One-Electron Energy =               -1327.4860757588705837
    Two-Electron Energy =                 574.2120219951383433
    DFT Exchange-Correlation Energy =     -44.3931545089957993
    Empirical Dispersion Energy =          -0.0120573700000000
    PCM Polarization Energy =               0.0000000000000000
    EFP Energy =                            0.0000000000000000
    Total Energy =                       -381.4528302353032245
    Molecular point group: c1
  Basis Set: 6-31G*
  Basis Set:
   => B3LYP-D3 Composite Functional <=

  -Total Gradient:
     Atom            X                  Y                   Z
    ------   -----------------  -----------------  -----------------
       1        0.004493830444    -0.004815674425    -0.007691081362
       2       -0.000009494896     0.000002554009     0.000016325958
       3        0.000026389253     0.000059662724    -0.000006574993
       4       -0.000003117480    -0.000038654032     0.000023604875
       5        0.000019429608    -0.000028576714     0.000012203947
       6       -0.000047928642    -0.000003506210    -0.000016787141
       7       -0.005982979639     0.004097693503     0.014055847984
       8       -0.000003488963     0.000058792595     0.000020791114
       9        0.000035096381     0.000032704439     0.000025455130
      10        0.000042471957    -0.000020715381     0.000029143620
      11       -0.000005648667    -0.000061600502     0.000010389136
      12       -0.000028782801    -0.000037883869    -0.000033895357
      13       -0.001918812928     0.012140108351    -0.012526957370
      14        0.000061264997    -0.000039504823     0.000052774235
      15       -0.000075643232    -0.000023661510    -0.000006314206
      16        0.000046415047     0.000046165804    -0.000024100478
      17        0.003338867355    -0.011409862858     0.006071843493
      18       -0.000000929907     0.000038157527    -0.000036281287

  **** Optimization is complete! (in 2 steps) ****
    Final optimized geometry and variables:
    Molecular point group: c1

    Geometry (in Angstrom), charge = 1, multiplicity = 1:

    C           -0.105454550529     0.119365668280    -0.031987936355
    C            0.813123198110     0.902487756076     0.702609169038
    C            1.710589626916     0.289722291188     1.566554597647
    C            1.699052597692    -1.103293090482     1.711685586460
    C            0.784129912831    -1.885816521656     0.998837363681
    C           -0.123635583120    -1.281616303027     0.137316647090
    C           -1.020647121548     0.738339282360    -0.976549969730
    H            0.788508264613     1.986891243458     0.635154695643
    H            2.407691560965     0.892070088103     2.139901085507
    H            2.401949931329    -1.579450231652     2.388655754669
    H            0.783753938081    -2.964947107766     1.112780777255
    H           -0.810495358670    -1.896654816944    -0.435876941459
    N           -2.224021785362     0.186508637594    -1.347016327317
    N           -0.677192224570     1.832245528214    -1.636134575942
    H           -1.355992483093     2.303366970162    -2.226151285168
    H            0.258566170321     2.217307769049    -1.583868931024
    H           -2.232906604214    -0.300924748990    -2.241294347110
    H           -2.600894890470    -0.438539138310    -0.638703289392

  Mulliken Charges: (a.u.)
   Center  Symbol    Alpha    Beta     Spin     Total
       1     C     2.93892  2.93892  0.00000  0.12216
       2     C     3.08299  3.08299  0.00000 -0.16597
       3     C     3.06173  3.06173  0.00000 -0.12346
       4     C     3.04953  3.04953  0.00000 -0.09906
       5     C     3.06185  3.06185  0.00000 -0.12370
       6     C     3.07890  3.07890  0.00000 -0.15780
       7     C     2.77020  2.77020  0.00000  0.45961
       8     H     0.41254  0.41254  0.00000  0.17492
       9     H     0.40292  0.40292  0.00000  0.19416
      10     H     0.40078  0.40078  0.00000  0.19845
      11     H     0.40310  0.40310  0.00000  0.19380
      12     H     0.41841  0.41841  0.00000  0.16318
      13     N     3.86574  3.86574  0.00000 -0.73148
      14     N     3.83732  3.83732  0.00000 -0.67464
      15     H     0.29751  0.29751  0.00000  0.40497
      16     H     0.30074  0.30074  0.00000  0.39852
      17     H     0.30446  0.30446  0.00000  0.39109
      18     H     0.31237  0.31237  0.00000  0.37526

   Total alpha = 32.00000, Total beta = 32.00000, Total charge =  1.00000

*** Psi4 exiting successfully. Buy a developer a beer!
