                               Psi4 1.1 release

  ==> Input File <==

--------------------------------------------------------------------------
set_num_threads(1)
set_memory(3145728000)

set { reference rks }
set { basis 6-31G* }

molecule MOL {
    1 1
    noreorient
    nocom
    symmetry c1
    C    0.000000   0.000000  -0.177864
    C    0.036678   1.219374   0.524165
    C    0.031764   1.213119   1.915444
    C   -0.000000  -0.000000   2.610107
    C   -0.031764  -1.213119   1.915444
    C   -0.036677  -1.219374   0.524165
    C    0.000000  -0.000000  -1.644734
    H    0.018170   2.164705  -0.010853
    H    0.042402   2.152895   2.457886
    H   -0.000000  -0.000000   3.695756
    H   -0.042402  -2.152895   2.457886
    H   -0.018170  -2.164705  -0.010853
    N   -0.712590  -0.905950  -2.308460
    N    0.712590   0.905950  -2.308461
    H    0.673432   1.006469  -3.315997
    H    1.377190   1.485970  -1.813317
    H   -0.964148  -0.740567  -3.274199
    H   -0.969018  -1.802541  -1.912056
}

set optking { frozen_dihedral = (" 1 7 13 17 ") }

set optking { dynamic_level = 1
 geom_maxiter = 250
 print_trajectory_xyz_file = True }

energy, wfn = optimize('B3LYP-D3', return_wfn=True)

import os
os.chdir(os.environ['HTMD_PSI4_WORKDIR'])

oeprop(wfn, 'DIPOLE', 'QUADRUPOLE', 'MULLIKEN_CHARGES')

with open('psi4out.xyz', 'w') as f:
    f.write('18 ' )
    f.write('%.12f\n' % energy)
    f.write(MOL.save_string_xyz())
--------------------------------------------------------------------------

    Molecular point group: c1
  Charge       = 1
  Multiplicity = 1
  Basis Set: 6-31G*
    Blend: 6-31G*
   => B3LYP Composite Functional <=
  Basis Set: (6-31G* AUX)
    Blend: CC-PVDZ-JKFIT
  @DF-RKS Final Energy:  -381.46071565656354
    Total Energy =                       -381.4607156565635364
    Molecular point group: c1
  Basis Set: 6-31G*
    Blend: 6-31G*
  Basis Set: (6-31G* AUX)
    Blend: CC-PVDZ-JKFIT
   => B3LYP Composite Functional <=
  Basis Set: 6-31G*
    Blend: 6-31G*
   => B3LYP Composite Functional <=
  Basis Set: (6-31G* AUX)
    Blend: CC-PVDZ-JKFIT
  @DF-RKS Final Energy:  -381.46508540319235
    Total Energy =                       -381.4650854031924041
  Basis Set: 6-31G*
    Blend: 6-31G*
  Basis Set: (6-31G* AUX)
  @DF-RKS Final Energy:  -381.46679886957207
    Total Energy =                       -381.4667988695720737
  @DF-RKS Final Energy:  -381.46785472237610
    Total Energy =                       -381.4678547223761029
  @DF-RKS Final Energy:  -381.46794185128016
    Total Energy =                       -381.4679418512802158
  @DF-RKS Final Energy:  -381.46795736669162
    Total Energy =                       -381.4679573666916212
   => B3LYP Composite Functional <=
  Basis Set: (6-31G* AUX)
    Blend: CC-PVDZ-JKFIT
  @DF-RKS Final Energy:  -381.46795881580141
    Total Energy =                       -381.4679588158014099
  Basis Set: 6-31G*
    Blend: 6-31G*
  Basis Set: (6-31G* AUX)
    Blend: CC-PVDZ-JKFIT
   => B3LYP Composite Functional <=
  Charge       = 1
  Multiplicity = 1
  Basis Set: 6-31G*
    Blend: 6-31G*
   => B3LYP Composite Functional <=
  Basis Set: (6-31G* AUX)
    Blend: CC-PVDZ-JKFIT

    Orbital Energies (a.u.)
    -----------------------

    Doubly Occupied:

       1A    -14.570964     2A    -14.566849     3A    -10.499314
       4A    -10.374803     5A    -10.357341     6A    -10.356395
       7A    -10.343067     8A    -10.341055     9A    -10.340874
      10A     -1.185429    11A     -1.093798    12A     -1.015078
      13A     -0.927331    14A     -0.902886    15A     -0.845645
      16A     -0.785863    17A     -0.774818    18A     -0.740330
      19A     -0.733257    20A     -0.684967    21A     -0.669012
      22A     -0.627826    23A     -0.616759    24A     -0.591600
      25A     -0.578666    26A     -0.574412    27A     -0.518126
      28A     -0.506726    29A     -0.498865    30A     -0.475190
      31A     -0.411393    32A     -0.406267

  @DF-RKS Final Energy:  -381.46795895443415

   => Energetics <=

    Nuclear Repulsion Energy =            416.8883026163595105
    One-Electron Energy =               -1328.9359427689232689
    Two-Electron Energy =                 574.9959264785895812
    DFT Exchange-Correlation Energy =     -44.4043510004600677
    Empirical Dispersion Energy =          -0.0118942800000000
    PCM Polarization Energy =               0.0000000000000000
    EFP Energy =                            0.0000000000000000
    Total Energy =                       -381.4679589544342093
    Molecular point group: c1
  Basis Set: 6-31G*
    Blend: 6-31G*
  Basis Set: (6-31G* AUX)
    Blend: CC-PVDZ-JKFIT
   => B3LYP Composite Functional <=

  -Total Gradient:
     Atom            X                  Y                   Z
    ------   -----------------  -----------------  -----------------
       1       -0.003778885096     0.002822686944    -0.000014245773
       2        0.000010943063     0.000008240768    -0.000012895496
       3       -0.000001782563     0.000000204572     0.000008153894
       4        0.000001142405     0.000000034667    -0.000007149877
       5       -0.000005286239     0.000006335146     0.000004124465
       6        0.000017297350    -0.000015157320    -0.000007555637
       7        0.003493121462    -0.003187062687     0.000831864981
       8       -0.000001547572    -0.000007430850    -0.000004358187
       9       -0.000002853632    -0.000002243014     0.000000105816
      10        0.000000242081     0.000000979804    -0.000000862373
      11       -0.000003288616     0.000000438681     0.000000136674
      12       -0.000004515655     0.000004424084    -0.000003711669
      13        0.006216248479    -0.002615219884    -0.002820477291
      14        0.000016247725    -0.000025318057     0.000001241103
      15       -0.000008343673     0.000007566756     0.000001396605
      16       -0.000010146859     0.000010590862     0.000004103989
      17       -0.005941235890     0.002953213948     0.001994051498
      18       -0.000001855125     0.000028448006     0.000002061171

  **** Optimization is complete! (in 8 steps) ****
    Final optimized geometry and variables:
    Molecular point group: c1

    Geometry (in Angstrom), charge = 1, multiplicity = 1:

    C            0.038835571425    -0.020943766518    -0.183780816444
    C            0.039185232939     1.201615651485     0.512975643681
    C            0.006123523306     1.200232201851     1.904323831420
    C           -0.011893833806    -0.009556425330     2.604332357317
    C           -0.003303316462    -1.225801422325     1.914409593556
    C            0.017408266762    -1.237749632680     0.523442118025
    C            0.050551738662    -0.024461455956    -1.651973646123
    H            0.009433727778     2.145622635821    -0.023687110522
    H           -0.014716458776     2.142705784090     2.441797605560
    H           -0.032766446634    -0.004766670103     3.689731595272
    H           -0.002499731024    -2.163571115782     2.460411349703
    H            0.067361072116    -2.185429250517    -0.005866997203
    N           -0.636629316586    -0.953582669993    -2.322407314254
    N            0.713315072065     0.918193068317    -2.312193497607
    H            0.708305070064     0.987176451610    -3.323351901262
    H            1.344950831013     1.532836551935    -1.815307297401
    H           -0.897236161245    -0.820487673600    -3.293629074305
    H           -1.278967841596    -1.532701262306    -1.795167439412

  Mulliken Charges: (a.u.)
   Center  Symbol    Alpha    Beta     Spin     Total
       1     C     2.95576  2.95576  0.00000  0.08849
       2     C     3.08286  3.08286  0.00000 -0.16573
       3     C     3.06246  3.06246  0.00000 -0.12492
       4     C     3.05162  3.05162  0.00000 -0.10325
       5     C     3.06234  3.06234  0.00000 -0.12468
       6     C     3.08439  3.08439  0.00000 -0.16877
       7     C     2.72887  2.72887  0.00000  0.54225
       8     H     0.41491  0.41491  0.00000  0.17018
       9     H     0.40539  0.40539  0.00000  0.18921
      10     H     0.40384  0.40384  0.00000  0.19231
      11     H     0.40518  0.40518  0.00000  0.18964
      12     H     0.41207  0.41207  0.00000  0.17586
      13     N     3.85811  3.85811  0.00000 -0.71622
      14     N     3.86038  3.86038  0.00000 -0.72076
      15     H     0.30472  0.30472  0.00000  0.39056
      16     H     0.29893  0.29893  0.00000  0.40214
      17     H     0.30625  0.30625  0.00000  0.38750
      18     H     0.30191  0.30191  0.00000  0.39619

   Total alpha = 32.00000, Total beta = 32.00000, Total charge =  1.00000

*** Psi4 exiting successfully. Buy a developer a beer!
