                               Psi4 1.1 release

  ==> Input File <==

--------------------------------------------------------------------------
set {
	reference rks
	basis 6-31G*
}

set_num_threads( 8 )
memory 2 gb

molecule MOL {
1 1

C	 1.240204	 0.525054	 -2.239814
C	 2.337920	 0.814629	 -1.407810
C	 3.513168	 1.308018	 -1.965557
C	 3.597371	 1.522987	 -3.344659
C	 2.506931	 1.240657	 -4.173186
C	 1.329589	 0.738051	 -3.628233
C	 -0.000000	 -0.000000	 -1.658508
H	 2.291718	 0.608976	 -0.342066
H	 4.366092	 1.515229	 -1.327500
H	 4.515262	 1.911586	 -3.774891
H	 2.571251	 1.421773	 -5.241172
H	 0.471100	 0.560694	 -4.269932
N	 -0.712589	 -0.905950	 -2.322235
N	 -0.409743	 0.430799	 -0.468724
H	 -1.206296	 0.033930	 0.015801
H	 0.037986	 1.230517	 -0.040619
H	 -1.377189	 -1.485970	 -1.827091
H	 -0.673431	 -1.006470	 -3.329771

	symmetry c1
}
set optking { dynamic_level = 1 }
set optking {
	frozen_dihedral = ("
		1 7 13 17
	")
}

ee,wfn = optimize('b3lyp-d3', return_wfn=True)
oeprop( wfn, 'DIPOLE', 'QUADRUPOLE', 'MULLIKEN_CHARGES')
f=open( 'psi4out.xyz', 'w' )
f.write( "18  " )
f.write( str(ee) + "\n" )
f.write( MOL.save_string_xyz() )
f.close()
--------------------------------------------------------------------------

    Molecular point group: c1
  Charge       = 1
  Multiplicity = 1
  Basis Set: 6-31G*
    Blend: 6-31G*
   => B3LYP Composite Functional <=
  Basis Set: (6-31G* AUX)
    Blend: CC-PVDZ-JKFIT
  @DF-RKS Final Energy:  -381.46071566439724
    Total Energy =                       -381.4607156643972985
    Molecular point group: c1
  Basis Set: 6-31G*
    Blend: 6-31G*
  Basis Set: (6-31G* AUX)
    Blend: CC-PVDZ-JKFIT
   => B3LYP Composite Functional <=
  Basis Set: 6-31G*
    Blend: 6-31G*
   => B3LYP Composite Functional <=
  Basis Set: (6-31G* AUX)
    Blend: CC-PVDZ-JKFIT
  @DF-RKS Final Energy:  -381.46508541319253
    Total Energy =                       -381.4650854131924689
  Basis Set: 6-31G*
    Blend: 6-31G*
  Basis Set: (6-31G* AUX)
  @DF-RKS Final Energy:  -381.46679886117522
    Total Energy =                       -381.4667988611752776
  @DF-RKS Final Energy:  -381.46785471254674
    Total Energy =                       -381.4678547125467389
  @DF-RKS Final Energy:  -381.46794184055778
    Total Energy =                       -381.4679418405577280
  @DF-RKS Final Energy:  -381.46795735669076
    Total Energy =                       -381.4679573566907607
   => B3LYP Composite Functional <=
  Basis Set: (6-31G* AUX)
    Blend: CC-PVDZ-JKFIT
  @DF-RKS Final Energy:  -381.46795880466340
    Total Energy =                       -381.4679588046633967
  Basis Set: 6-31G*
    Blend: 6-31G*
  Basis Set: (6-31G* AUX)
    Blend: CC-PVDZ-JKFIT
   => B3LYP Composite Functional <=
  Charge       = 1
  Multiplicity = 1
  Basis Set: 6-31G*
    Blend: 6-31G*
   => B3LYP Composite Functional <=
  Basis Set: (6-31G* AUX)
    Blend: CC-PVDZ-JKFIT

    Orbital Energies (a.u.)
    -----------------------

    Doubly Occupied:

       1A    -14.570964     2A    -14.566849     3A    -10.499314
       4A    -10.374803     5A    -10.357341     6A    -10.356395
       7A    -10.343067     8A    -10.341055     9A    -10.340874
      10A     -1.185429    11A     -1.093798    12A     -1.015078
      13A     -0.927331    14A     -0.902886    15A     -0.845645
      16A     -0.785863    17A     -0.774818    18A     -0.740330
      19A     -0.733257    20A     -0.684967    21A     -0.669012
      22A     -0.627826    23A     -0.616759    24A     -0.591600
      25A     -0.578666    26A     -0.574412    27A     -0.518126
      28A     -0.506726    29A     -0.498865    30A     -0.475190
      31A     -0.411393    32A     -0.406266

  @DF-RKS Final Energy:  -381.46795894295747

   => Energetics <=

    Nuclear Repulsion Energy =            416.8882542710780399
    One-Electron Energy =               -1328.9358479299380633
    Two-Electron Energy =                 574.9958789158470154
    DFT Exchange-Correlation Energy =     -44.4043499199444440
    Empirical Dispersion Energy =          -0.0118942800000000
    PCM Polarization Energy =               0.0000000000000000
    EFP Energy =                            0.0000000000000000
    Total Energy =                       -381.4679589429574094
    Molecular point group: c1
  Basis Set: 6-31G*
    Blend: 6-31G*
  Basis Set: (6-31G* AUX)
    Blend: CC-PVDZ-JKFIT
   => B3LYP Composite Functional <=

  -Total Gradient:
     Atom            X                  Y                   Z
    ------   -----------------  -----------------  -----------------
       1        0.002412659055    -0.003524383363     0.002001367248
       2       -0.000011023935     0.000005609229     0.000014288841
       3        0.000007714298     0.000001309477    -0.000003319016
       4       -0.000006291251    -0.000001441224     0.000002958419
       5        0.000007993492    -0.000003390932     0.000003226263
       6       -0.000018539701     0.000013366599    -0.000008216730
       7       -0.001782809912     0.003548951274    -0.002697938941
       8       -0.000006323555    -0.000003068425    -0.000005068893
       9        0.000000210824    -0.000002606430    -0.000002416033
      10       -0.000000333377    -0.000000059536     0.000001238937
      11        0.000001395297    -0.000002996012    -0.000000289461
      12        0.000000090316    -0.000005548794     0.000004702485
      13       -0.005515717080     0.004786133742    -0.000327309520
      14       -0.000014959310     0.000015501169    -0.000020967495
      15        0.000007032214    -0.000007284058     0.000005098960
      16        0.000011302584    -0.000007892495     0.000006527465
      17        0.004870380714    -0.004824064779     0.001001968055
      18        0.000014456444    -0.000000962908     0.000024601322

  **** Optimization is complete! (in 8 steps) ****
    Final optimized geometry and variables:
    Molecular point group: c1

    Geometry (in Angstrom), charge = 1, multiplicity = 1:

    C           -0.169918506425    -0.052429055457     0.072804229699
    C            0.936516169165     0.201347970903     0.904381943731
    C            2.123049309022     0.668494211291     0.346834596553
    C            2.208706018116     0.898223191485    -1.029324216724
    C            1.107810828971     0.655260984604    -1.856559778699
    C           -0.080021823216     0.176675093379    -1.313078344952
    C           -1.416545636340    -0.567028988011     0.653189636662
    H            0.892024906699    -0.015397515299     1.967906083228
    H            2.983165420705     0.844543233383     0.984624728203
    H            3.135210118353     1.267259178192    -1.458221498576
    H            1.172264019107     0.848339825576    -2.922438389506
    H           -0.944917561586     0.030714867869    -1.954491915862
    N           -2.152885419266    -1.451732293434    -0.025094620410
    N           -1.791564137084    -0.181378040909     1.867429267368
    H           -2.615646670748    -0.547763565510     2.329895402488
    H           -1.316973545641     0.588298111711     2.321311266844
    H           -2.832840929000    -2.042271423283     0.441623846034
    H           -1.743079025625    -1.864706762430    -0.854232766589

  Mulliken Charges: (a.u.)
   Center  Symbol    Alpha    Beta     Spin     Total
       1     C     2.95576  2.95576  0.00000  0.08849
       2     C     3.08286  3.08286  0.00000 -0.16573
       3     C     3.06246  3.06246  0.00000 -0.12492
       4     C     3.05162  3.05162  0.00000 -0.10325
       5     C     3.06234  3.06234  0.00000 -0.12468
       6     C     3.08439  3.08439  0.00000 -0.16877
       7     C     2.72887  2.72887  0.00000  0.54225
       8     H     0.41491  0.41491  0.00000  0.17018
       9     H     0.40539  0.40539  0.00000  0.18921
      10     H     0.40384  0.40384  0.00000  0.19231
      11     H     0.40518  0.40518  0.00000  0.18964
      12     H     0.41207  0.41207  0.00000  0.17586
      13     N     3.85811  3.85811  0.00000 -0.71622
      14     N     3.86038  3.86038  0.00000 -0.72076
      15     H     0.30472  0.30472  0.00000  0.39056
      16     H     0.29893  0.29893  0.00000  0.40214
      17     H     0.30625  0.30625  0.00000  0.38750
      18     H     0.30191  0.30191  0.00000  0.39619

   Total alpha = 32.00000, Total beta = 32.00000, Total charge =  1.00000

*** Psi4 exiting successfully. Buy a developer a beer!
