                               Psi4 1.1 release

  ==> Input File <==

--------------------------------------------------------------------------
set_num_threads(1)
set_memory(4203741184)

set { reference rks }
set { basis cc-pVDZ }

molecule MOL {
    0 1
    noreorient
    nocom
    symmetry c1
    O    1.141000   0.017000   0.083000
    C    2.558000   0.086000  -0.005000
    C    3.192000  -0.789000   1.067000
    O    4.610000  -0.719000   0.979000
    H    0.886098  -0.876225  -0.206163
    H    2.874000   1.128000   0.115000
    H    2.871000  -0.243000  -1.001000
    H    2.876000  -1.830000   0.947000
    H    2.879000  -0.459000   2.064000
    H    4.961000  -1.293000   1.682000
}

set optking { frozen_dihedral = (" 3 2 1 5 ") }

energy, wfn = energy('B3LYP-D3', return_wfn=True)

import os
os.chdir(os.environ['HTMD_PSI4_WORKDIR'])

oeprop(wfn, 'DIPOLE', 'QUADRUPOLE', 'MULLIKEN_CHARGES')

with open('psi4out.xyz', 'w') as f:
    f.write('10 ' )
    f.write('%.12f\n' % energy)
    f.write(MOL.save_string_xyz())
--------------------------------------------------------------------------

    Molecular point group: c1

    Geometry (in Angstrom), charge = 0, multiplicity = 1:

       Center              X                  Y                   Z               Mass
    ------------   -----------------  -----------------  -----------------  -----------------
           O          1.141000000000     0.017000000000     0.083000000000    15.994914619560
           C          2.558000000000     0.086000000000    -0.005000000000    12.000000000000
           C          3.192000000000    -0.789000000000     1.067000000000    12.000000000000
           O          4.610000000000    -0.719000000000     0.979000000000    15.994914619560
           H          0.886098000000    -0.876225000000    -0.206163000000     1.007825032070
           H          2.874000000000     1.128000000000     0.115000000000     1.007825032070
           H          2.871000000000    -0.243000000000    -1.001000000000     1.007825032070
           H          2.876000000000    -1.830000000000     0.947000000000     1.007825032070
           H          2.879000000000    -0.459000000000     2.064000000000     1.007825032070
           H          4.961000000000    -1.293000000000     1.682000000000     1.007825032070

  Charge       = 0
  Multiplicity = 1
  Basis Set: CC-PVDZ
    Blend: CC-PVDZ
   => B3LYP Composite Functional <=
  Basis Set: (CC-PVDZ AUX)
    Blend: CC-PVDZ-JKFIT

    Orbital Energies (a.u.)
    -----------------------

    Doubly Occupied:

       1A    -19.135189     2A    -19.133283     3A    -10.227496
       4A    -10.227224     5A     -1.021904     6A     -1.010589
       7A     -0.731346     8A     -0.615764     9A     -0.520109
      10A     -0.495636    11A     -0.453360    12A     -0.430000
      13A     -0.397937    14A     -0.342636    15A     -0.325104
      16A     -0.269762    17A     -0.266758

  @DF-RKS Final Energy:  -230.25879371045045

   => Energetics <=

    Nuclear Repulsion Energy =            129.8359670125568641
    One-Electron Energy =                -571.3486810775639242
    Two-Electron Energy =                 235.7966634609714731
    DFT Exchange-Correlation Energy =     -24.5381007264148607
    Empirical Dispersion Energy =          -0.0046423800000000
    PCM Polarization Energy =               0.0000000000000000
    EFP Energy =                            0.0000000000000000
    Total Energy =                       -230.2587937104504476

  Mulliken Charges: (a.u.)
   Center  Symbol    Alpha    Beta     Spin     Total
       1     O     4.13903  4.13903  0.00000 -0.27807
       2     C     2.92923  2.92923  0.00000  0.14154
       3     C     2.94394  2.94394  0.00000  0.11211
       4     O     4.14015  4.14015  0.00000 -0.28030
       5     H     0.43069  0.43069  0.00000  0.13861
       6     H     0.48576  0.48576  0.00000  0.02849
       7     H     0.49714  0.49714  0.00000  0.00573
       8     H     0.50803  0.50803  0.00000 -0.01607
       9     H     0.49790  0.49790  0.00000  0.00421
      10     H     0.42813  0.42813  0.00000  0.14375

   Total alpha = 17.00000, Total beta = 17.00000, Total charge = -0.00000

*** Psi4 exiting successfully. Buy a developer a beer!
