                               Psi4 1.1 release

  ==> Input File <==

--------------------------------------------------------------------------
set_num_threads( 8 )
memory 2.000000 gb

set { reference rks }
set { basis cc-pVDZ }

molecule MOL {
    0 1
    noreorient
    nocom
    symmetry c1
    O    1.050400   0.042900  -0.048100
    C    2.474100   0.047400  -0.029000
    C    3.002600  -1.068900  -0.932000
    N    4.462700  -1.072400  -1.006800
    H    0.760400   0.728400   0.578000
    H    2.809900  -0.097900   1.003200
    H    2.817400   1.026800  -0.378600
    H    2.581000  -0.963300  -1.938400
    H    2.653800  -2.036400  -0.553400
    H    4.775758  -0.256295  -1.531633
    H    4.761490  -1.883512  -1.548162
}

set optking { frozen_dihedral = (" 2 3 4 10 ") }

energy, wfn = energy('B3LYP-D3', return_wfn=True)

import os
os.chdir(os.environ['HTMD_PSI4_WORKDIR'])

oeprop(wfn, 'DIPOLE', 'QUADRUPOLE', 'MULLIKEN_CHARGES')

with open('psi4out.xyz', 'w') as f:
    f.write('11 ' )
    f.write('%.12f\n' % energy)
    f.write(MOL.save_string_xyz())
--------------------------------------------------------------------------

    Molecular point group: c1

    Geometry (in Angstrom), charge = 0, multiplicity = 1:

       Center              X                  Y                   Z               Mass
    ------------   -----------------  -----------------  -----------------  -----------------
           O          1.050400000000     0.042900000000    -0.048100000000    15.994914619560
           C          2.474100000000     0.047400000000    -0.029000000000    12.000000000000
           C          3.002600000000    -1.068900000000    -0.932000000000    12.000000000000
           N          4.462700000000    -1.072400000000    -1.006800000000    14.003074004780
           H          0.760400000000     0.728400000000     0.578000000000     1.007825032070
           H          2.809900000000    -0.097900000000     1.003200000000     1.007825032070
           H          2.817400000000     1.026800000000    -0.378600000000     1.007825032070
           H          2.581000000000    -0.963300000000    -1.938400000000     1.007825032070
           H          2.653800000000    -2.036400000000    -0.553400000000     1.007825032070
           H          4.775758000000    -0.256295000000    -1.531633000000     1.007825032070
           H          4.761490000000    -1.883512000000    -1.548162000000     1.007825032070

  Charge       = 0
  Multiplicity = 1
  Basis Set: CC-PVDZ
    Blend: CC-PVDZ
   => B3LYP Composite Functional <=
  Basis Set: (CC-PVDZ AUX)
    Blend: CC-PVDZ-JKFIT

    Orbital Energies (a.u.)
    -----------------------

    Doubly Occupied:

       1A    -19.126484     2A    -14.305060     3A    -10.222978
       4A    -10.201777     5A     -1.008872     6A     -0.876747
       7A     -0.711904     8A     -0.596369     9A     -0.505448
      10A     -0.487178    11A     -0.452248    12A     -0.416886
      13A     -0.389228    14A     -0.361421    15A     -0.323191
      16A     -0.260128    17A     -0.231469

  @DF-RKS Final Energy:  -210.39141151563797

   => Energetics <=

    Nuclear Repulsion Energy =            130.3882797561087159
    One-Electron Energy =                -543.7226803927234187
    Two-Electron Energy =                 226.4342978826340129
    DFT Exchange-Correlation Energy =     -23.4864090416572928
    Empirical Dispersion Energy =          -0.0048997200000000
    PCM Polarization Energy =               0.0000000000000000
    EFP Energy =                            0.0000000000000000
    Total Energy =                       -210.3914115156379694

  Mulliken Charges: (a.u.)
   Center  Symbol    Alpha    Beta     Spin     Total
       1     O     4.13966  4.13966  0.00000 -0.27931
       2     C     2.92834  2.92834  0.00000  0.14333
       3     C     2.98611  2.98611  0.00000  0.02778
       4     N     3.59313  3.59313  0.00000 -0.18626
       5     H     0.42981  0.42981  0.00000  0.14037
       6     H     0.49842  0.49842  0.00000  0.00316
       7     H     0.50481  0.50481  0.00000 -0.00961
       8     H     0.50074  0.50074  0.00000 -0.00147
       9     H     0.49015  0.49015  0.00000  0.01971
      10     H     0.46554  0.46554  0.00000  0.06893
      11     H     0.46331  0.46331  0.00000  0.07338

   Total alpha = 17.00000, Total beta = 17.00000, Total charge =  0.00000

*** Psi4 exiting successfully. Buy a developer a beer!
