                               Psi4 1.1 release

  ==> Input File <==

--------------------------------------------------------------------------
set_num_threads(1)
set_memory(4203741184)

set { reference rks }
set { basis cc-pVDZ }

molecule MOL {
    0 1
    noreorient
    nocom
    symmetry c1
    O    1.141000   0.017000   0.083000
    C    2.558000   0.086000  -0.005000
    C    3.192000  -0.789000   1.067000
    O    3.186391  -0.110820   2.317364
    H    0.789000   0.590000  -0.620000
    H    2.874000   1.128000   0.115000
    H    2.871000  -0.243000  -1.001000
    H    4.223569  -1.036525   0.797682
    H    2.639530  -1.729961   1.168228
    H    3.600374  -0.711403   2.961416
}

set optking { frozen_dihedral = (" 1 2 3 4 ") }

energy, wfn = energy('B3LYP-D3', return_wfn=True)

import os
os.chdir(os.environ['HTMD_PSI4_WORKDIR'])

oeprop(wfn, 'DIPOLE', 'QUADRUPOLE', 'MULLIKEN_CHARGES')

with open('psi4out.xyz', 'w') as f:
    f.write('10 ' )
    f.write('%.12f\n' % energy)
    f.write(MOL.save_string_xyz())
--------------------------------------------------------------------------

    Molecular point group: c1

    Geometry (in Angstrom), charge = 0, multiplicity = 1:

       Center              X                  Y                   Z               Mass
    ------------   -----------------  -----------------  -----------------  -----------------
           O          1.141000000000     0.017000000000     0.083000000000    15.994914619560
           C          2.558000000000     0.086000000000    -0.005000000000    12.000000000000
           C          3.192000000000    -0.789000000000     1.067000000000    12.000000000000
           O          3.186391000000    -0.110820000000     2.317364000000    15.994914619560
           H          0.789000000000     0.590000000000    -0.620000000000     1.007825032070
           H          2.874000000000     1.128000000000     0.115000000000     1.007825032070
           H          2.871000000000    -0.243000000000    -1.001000000000     1.007825032070
           H          4.223569000000    -1.036525000000     0.797682000000     1.007825032070
           H          2.639530000000    -1.729961000000     1.168228000000     1.007825032070
           H          3.600374000000    -0.711403000000     2.961416000000     1.007825032070

  Charge       = 0
  Multiplicity = 1
  Basis Set: CC-PVDZ
    Blend: CC-PVDZ
   => B3LYP Composite Functional <=
  Basis Set: (CC-PVDZ AUX)
    Blend: CC-PVDZ-JKFIT

    Orbital Energies (a.u.)
    -----------------------

    Doubly Occupied:

       1A    -19.125760     2A    -19.125727     3A    -10.226911
       4A    -10.226723     5A     -1.016517     6A     -1.001100
       7A     -0.733528     8A     -0.602796     9A     -0.515812
      10A     -0.509315    11A     -0.428121    12A     -0.420697
      13A     -0.407393    14A     -0.343207    15A     -0.318117
      16A     -0.265955    17A     -0.254913

  @DF-RKS Final Energy:  -230.25628255797929

   => Energetics <=

    Nuclear Repulsion Energy =            131.1503196551972508
    One-Electron Energy =                -574.1362498376201984
    Two-Electron Energy =                 237.2716004811973676
    DFT Exchange-Correlation Energy =     -24.5375983567536764
    Empirical Dispersion Energy =          -0.0043545000000000
    PCM Polarization Energy =               0.0000000000000000
    EFP Energy =                            0.0000000000000000
    Total Energy =                       -230.2562825579792900

  Mulliken Charges: (a.u.)
   Center  Symbol    Alpha    Beta     Spin     Total
       1     O     4.13697  4.13697  0.00000 -0.27394
       2     C     2.93144  2.93144  0.00000  0.13712
       3     C     2.93159  2.93159  0.00000  0.13682
       4     O     4.13722  4.13722  0.00000 -0.27444
       5     H     0.43093  0.43093  0.00000  0.13815
       6     H     0.49636  0.49636  0.00000  0.00728
       7     H     0.50424  0.50424  0.00000 -0.00848
       8     H     0.50411  0.50411  0.00000 -0.00823
       9     H     0.49626  0.49626  0.00000  0.00748
      10     H     0.43087  0.43087  0.00000  0.13825

   Total alpha = 17.00000, Total beta = 17.00000, Total charge = -0.00000

*** Psi4 exiting successfully. Buy a developer a beer!
