                               Psi4 1.1 release

  ==> Input File <==

--------------------------------------------------------------------------
set_num_threads( 8 )
memory 2.000000 gb

set { reference rks }
set { basis cc-pVDZ }

molecule MOL {
    0 1
    noreorient
    nocom
    symmetry c1
    O    1.050400   0.042900  -0.048100
    C    2.474100   0.047400  -0.029000
    C    3.002600  -1.068900  -0.932000
    N    4.462700  -1.072400  -1.006800
    H    0.760400   0.728400   0.578000
    H    2.809900  -0.097900   1.003200
    H    2.817400   1.026800  -0.378600
    H    2.581000  -0.963300  -1.938400
    H    2.653800  -2.036400  -0.553400
    H    4.783592  -0.180470  -1.382262
    H    4.754947  -1.779972  -1.680732
}

set optking { frozen_dihedral = (" 2 3 4 10 ") }

energy, wfn = energy('B3LYP-D3', return_wfn=True)

import os
os.chdir(os.environ['HTMD_PSI4_WORKDIR'])

oeprop(wfn, 'DIPOLE', 'QUADRUPOLE', 'MULLIKEN_CHARGES')

with open('psi4out.xyz', 'w') as f:
    f.write('11 ' )
    f.write('%.12f\n' % energy)
    f.write(MOL.save_string_xyz())
--------------------------------------------------------------------------

    Molecular point group: c1

    Geometry (in Angstrom), charge = 0, multiplicity = 1:

       Center              X                  Y                   Z               Mass
    ------------   -----------------  -----------------  -----------------  -----------------
           O          1.050400000000     0.042900000000    -0.048100000000    15.994914619560
           C          2.474100000000     0.047400000000    -0.029000000000    12.000000000000
           C          3.002600000000    -1.068900000000    -0.932000000000    12.000000000000
           N          4.462700000000    -1.072400000000    -1.006800000000    14.003074004780
           H          0.760400000000     0.728400000000     0.578000000000     1.007825032070
           H          2.809900000000    -0.097900000000     1.003200000000     1.007825032070
           H          2.817400000000     1.026800000000    -0.378600000000     1.007825032070
           H          2.581000000000    -0.963300000000    -1.938400000000     1.007825032070
           H          2.653800000000    -2.036400000000    -0.553400000000     1.007825032070
           H          4.783592000000    -0.180470000000    -1.382262000000     1.007825032070
           H          4.754947000000    -1.779972000000    -1.680732000000     1.007825032070

  Charge       = 0
  Multiplicity = 1
  Basis Set: CC-PVDZ
    Blend: CC-PVDZ
   => B3LYP Composite Functional <=
  Basis Set: (CC-PVDZ AUX)
    Blend: CC-PVDZ-JKFIT

    Orbital Energies (a.u.)
    -----------------------

    Doubly Occupied:

       1A    -19.127696     2A    -14.304541     3A    -10.224935
       4A    -10.201700     5A     -1.010065     6A     -0.876673
       7A     -0.712362     8A     -0.597904     9A     -0.506619
      10A     -0.483864    11A     -0.457048    12A     -0.415240
      13A     -0.386957    14A     -0.366002    15A     -0.323474
      16A     -0.261377    17A     -0.230409

  @DF-RKS Final Energy:  -210.39108753998642

   => Energetics <=

    Nuclear Repulsion Energy =            130.4450621842958071
    One-Electron Energy =                -543.8165350380521659
    Two-Electron Energy =                 226.4717927621290130
    DFT Exchange-Correlation Energy =     -23.4864781583590592
    Empirical Dispersion Energy =          -0.0049292900000000
    PCM Polarization Energy =               0.0000000000000000
    EFP Energy =                            0.0000000000000000
    Total Energy =                       -210.3910875399864153

  Mulliken Charges: (a.u.)
   Center  Symbol    Alpha    Beta     Spin     Total
       1     O     4.13910  4.13910  0.00000 -0.27819
       2     C     2.93127  2.93127  0.00000  0.13747
       3     C     2.98293  2.98293  0.00000  0.03413
       4     N     3.59390  3.59390  0.00000 -0.18781
       5     H     0.42977  0.42977  0.00000  0.14047
       6     H     0.49772  0.49772  0.00000  0.00456
       7     H     0.50456  0.50456  0.00000 -0.00912
       8     H     0.50099  0.50099  0.00000 -0.00198
       9     H     0.48993  0.48993  0.00000  0.02015
      10     H     0.46642  0.46642  0.00000  0.06716
      11     H     0.46342  0.46342  0.00000  0.07317

   Total alpha = 17.00000, Total beta = 17.00000, Total charge =  0.00000

*** Psi4 exiting successfully. Buy a developer a beer!
