                               Psi4 1.1 release

  ==> Input File <==

--------------------------------------------------------------------------
set {
	reference rks
	basis cc-pvdz
}

set_num_threads( 8 )
memory 2 gb

molecule MOL {
0 1

O	 -0.724050	 0.052603	 0.031450
O	 0.724050	 -0.052597	 -0.031450
H	 -0.917150	 -0.768697	 -0.459650
H	 0.917150	 0.768603	 0.459650

	symmetry c1
}
set optking { dynamic_level = 1 }
ee,wfn = energy('b3lyp-d3', return_wfn=True)
oeprop( wfn, 'DIPOLE', 'QUADRUPOLE', 'MULLIKEN_CHARGES')
oeprop( wfn, 'GRID_ESP')
f=open( 'psi4out.xyz', 'w' )
f.write( "4  " )
f.write( str(ee) + "\n" )
f.write( MOL.save_string_xyz() )
f.close()
--------------------------------------------------------------------------

    Molecular point group: c1

    Geometry (in Angstrom), charge = 0, multiplicity = 1:

       Center              X                  Y                   Z               Mass
    ------------   -----------------  -----------------  -----------------  -----------------
           O         -0.724050000000     0.052602963714     0.031450000000    15.994914619560
           O          0.724050000000    -0.052597036286    -0.031450000000    15.994914619560
           H         -0.917150000000    -0.768697036286    -0.459650000000     1.007825032070
           H          0.917150000000     0.768602963714     0.459650000000     1.007825032070

  Charge       = 0
  Multiplicity = 1
  Basis Set: CC-PVDZ
    Blend: CC-PVDZ
   => B3LYP Composite Functional <=
  Basis Set: (CC-PVDZ AUX)
    Blend: CC-PVDZ-JKFIT

    Orbital Energies (a.u.)
    -----------------------

    Doubly Occupied:

       1A    -19.185346     2A    -19.185306     3A     -1.109330
       4A     -0.886453     5A     -0.504034     6A     -0.493929
       7A     -0.389593     8A     -0.357977     9A     -0.241896

  @DF-RKS Final Energy:  -151.54968316635069

   => Energetics <=

    Nuclear Repulsion Energy =             36.7827956879796005
    One-Electron Energy =                -281.5720335577422020
    Two-Electron Energy =                 107.7032268192184858
    DFT Exchange-Correlation Energy =     -14.4633533258065778
    Empirical Dispersion Energy =          -0.0003187900000000
    PCM Polarization Energy =               0.0000000000000000
    EFP Energy =                            0.0000000000000000
    Total Energy =                       -151.5496831663506612

  Mulliken Charges: (a.u.)
   Center  Symbol    Alpha    Beta     Spin     Total
       1     O     4.09129  4.09129  0.00000 -0.18259
       2     O     4.09127  4.09127  0.00000 -0.18255
       3     H     0.40871  0.40871  0.00000  0.18259
       4     H     0.40873  0.40873  0.00000  0.18255

   Total alpha =  9.00000, Total beta =  9.00000, Total charge = -0.00000

*** Psi4 exiting successfully. Buy a developer a beer!
