                               Psi4 1.1 release

  ==> Input File <==

--------------------------------------------------------------------------
set_num_threads(1)
set_memory(4203741184)

set { reference rks }
set { basis cc-pVDZ }

molecule MOL {
    0 1
    noreorient
    nocom
    symmetry c1
    O    1.141000   0.017000   0.083000
    C    2.558000   0.086000  -0.005000
    C    3.192000  -0.789000   1.067000
    O    4.610000  -0.719000   0.979000
    H    0.789000   0.590000  -0.620000
    H    2.874000   1.128000   0.115000
    H    2.871000  -0.243000  -1.001000
    H    2.876000  -1.830000   0.947000
    H    2.879000  -0.459000   2.064000
    H    4.960039  -1.158608   1.773420
}

set optking { frozen_dihedral = (" 2 3 4 10 ") }

energy, wfn = energy('B3LYP-D3', return_wfn=True)

import os
os.chdir(os.environ['HTMD_PSI4_WORKDIR'])

oeprop(wfn, 'DIPOLE', 'QUADRUPOLE', 'MULLIKEN_CHARGES')

with open('psi4out.xyz', 'w') as f:
    f.write('10 ' )
    f.write('%.12f\n' % energy)
    f.write(MOL.save_string_xyz())
--------------------------------------------------------------------------

    Molecular point group: c1

    Geometry (in Angstrom), charge = 0, multiplicity = 1:

       Center              X                  Y                   Z               Mass
    ------------   -----------------  -----------------  -----------------  -----------------
           O          1.141000000000     0.017000000000     0.083000000000    15.994914619560
           C          2.558000000000     0.086000000000    -0.005000000000    12.000000000000
           C          3.192000000000    -0.789000000000     1.067000000000    12.000000000000
           O          4.610000000000    -0.719000000000     0.979000000000    15.994914619560
           H          0.789000000000     0.590000000000    -0.620000000000     1.007825032070
           H          2.874000000000     1.128000000000     0.115000000000     1.007825032070
           H          2.871000000000    -0.243000000000    -1.001000000000     1.007825032070
           H          2.876000000000    -1.830000000000     0.947000000000     1.007825032070
           H          2.879000000000    -0.459000000000     2.064000000000     1.007825032070
           H          4.960039000000    -1.158608000000     1.773420000000     1.007825032070

  Charge       = 0
  Multiplicity = 1
  Basis Set: CC-PVDZ
    Blend: CC-PVDZ
   => B3LYP Composite Functional <=
  Basis Set: (CC-PVDZ AUX)
    Blend: CC-PVDZ-JKFIT

    Orbital Energies (a.u.)
    -----------------------

    Doubly Occupied:

       1A    -19.131709     2A    -19.131615     3A    -10.226361
       4A    -10.226082     5A     -1.018860     6A     -1.008598
       7A     -0.732292     8A     -0.603720     9A     -0.525976
      10A     -0.480100    11A     -0.473804    12A     -0.412524
      13A     -0.395158    14A     -0.349880    15A     -0.319309
      16A     -0.264220    17A     -0.263496

  @DF-RKS Final Energy:  -230.25727613466680

   => Energetics <=

    Nuclear Repulsion Energy =            129.4447149712567011
    One-Electron Energy =                -570.6437576185423950
    Two-Electron Energy =                 235.4849475447930445
    DFT Exchange-Correlation Energy =     -24.5387715621741442
    Empirical Dispersion Energy =          -0.0044094700000000
    PCM Polarization Energy =               0.0000000000000000
    EFP Energy =                            0.0000000000000000
    Total Energy =                       -230.2572761346667960

  Mulliken Charges: (a.u.)
   Center  Symbol    Alpha    Beta     Spin     Total
       1     O     4.14047  4.14047  0.00000 -0.28094
       2     C     2.93618  2.93618  0.00000  0.12765
       3     C     2.93646  2.93646  0.00000  0.12708
       4     O     4.14062  4.14062  0.00000 -0.28125
       5     H     0.42732  0.42732  0.00000  0.14535
       6     H     0.49854  0.49854  0.00000  0.00292
       7     H     0.49765  0.49765  0.00000  0.00469
       8     H     0.49750  0.49750  0.00000  0.00501
       9     H     0.49807  0.49807  0.00000  0.00387
      10     H     0.42719  0.42719  0.00000  0.14561

   Total alpha = 17.00000, Total beta = 17.00000, Total charge = -0.00000

*** Psi4 exiting successfully. Buy a developer a beer!
