                               Psi4 1.1 release

  ==> Input File <==

--------------------------------------------------------------------------
set {
	reference rks
	basis cc-pvdz
}

set_num_threads( 8 )
memory 2 gb

molecule MOL {
0 1

O	 1.014300	 -0.002300	 0.060500
O	 2.462400	 -0.107500	 -0.002400
H	 0.943885	 -0.010600	 1.034139
H	 2.655500	 0.713700	 0.488700

	symmetry c1
}
set optking { dynamic_level = 1 }
set optking {
	frozen_dihedral = ("
		3 1 2 4
	")
}

ee,wfn = energy('b3lyp-d3', return_wfn=True)
oeprop( wfn, 'DIPOLE', 'QUADRUPOLE', 'MULLIKEN_CHARGES')
f=open( 'psi4out.xyz', 'w' )
f.write( "4  " )
f.write( str(ee) + "\n" )
f.write( MOL.save_string_xyz() )
f.close()
--------------------------------------------------------------------------

    Molecular point group: c1

    Geometry (in Angstrom), charge = 0, multiplicity = 1:

       Center              X                  Y                   Z               Mass
    ------------   -----------------  -----------------  -----------------  -----------------
           O         -0.727686032092     0.028507971734    -0.011960669689    15.994914619560
           O          0.720413967908    -0.076692028266    -0.074860669689    15.994914619560
           H         -0.798101032092     0.020207971734     0.961678330311     1.007825032070
           H          0.913513967908     0.744507971734     0.416239330311     1.007825032070

  Charge       = 0
  Multiplicity = 1
  Basis Set: CC-PVDZ
    Blend: CC-PVDZ
   => B3LYP Composite Functional <=
  Basis Set: (CC-PVDZ AUX)
    Blend: CC-PVDZ-JKFIT

    Orbital Energies (a.u.)
    -----------------------

    Doubly Occupied:

       1A    -19.191324     2A    -19.191287     3A     -1.118483
       4A     -0.887226     5A     -0.544014     6A     -0.450208
       7A     -0.425028     8A     -0.321888     9A     -0.267987

  @DF-RKS Final Energy:  -151.54373118374363

   => Energetics <=

    Nuclear Repulsion Energy =             36.8495960977898775
    One-Electron Energy =                -281.6079604125504261
    Two-Electron Energy =                 107.6765209232619469
    DFT Exchange-Correlation Energy =     -14.4616777222450263
    Empirical Dispersion Energy =          -0.0002100700000000
    PCM Polarization Energy =               0.0000000000000000
    EFP Energy =                            0.0000000000000000
    Total Energy =                       -151.5437311837436027

  Mulliken Charges: (a.u.)
   Center  Symbol    Alpha    Beta     Spin     Total
       1     O     4.08379  4.08379  0.00000 -0.16758
       2     O     4.08377  4.08377  0.00000 -0.16755
       3     H     0.41621  0.41621  0.00000  0.16758
       4     H     0.41623  0.41623  0.00000  0.16755

   Total alpha =  9.00000, Total beta =  9.00000, Total charge =  0.00000

*** Psi4 exiting successfully. Buy a developer a beer!
