                               Psi4 1.1 release

  ==> Input File <==

--------------------------------------------------------------------------
set_num_threads(1)
set_memory(4203741184)

set { reference rks }
set { basis cc-pVDZ }

molecule MOL {
    0 1
    noreorient
    nocom
    symmetry c1
    O    1.141000   0.017000   0.083000
    C    2.558000   0.086000  -0.005000
    C    3.192000  -0.789000   1.067000
    O    4.610000  -0.719000   0.979000
    H    0.789000   0.590000  -0.620000
    H    2.874000   1.128000   0.115000
    H    2.871000  -0.243000  -1.001000
    H    2.876000  -1.830000   0.947000
    H    2.879000  -0.459000   2.064000
    H    4.886378  -1.427826   0.372315
}

set optking { frozen_dihedral = (" 2 3 4 10 ") }

energy, wfn = energy('B3LYP-D3', return_wfn=True)

import os
os.chdir(os.environ['HTMD_PSI4_WORKDIR'])

oeprop(wfn, 'DIPOLE', 'QUADRUPOLE', 'MULLIKEN_CHARGES')

with open('psi4out.xyz', 'w') as f:
    f.write('10 ' )
    f.write('%.12f\n' % energy)
    f.write(MOL.save_string_xyz())
--------------------------------------------------------------------------

    Molecular point group: c1

    Geometry (in Angstrom), charge = 0, multiplicity = 1:

       Center              X                  Y                   Z               Mass
    ------------   -----------------  -----------------  -----------------  -----------------
           O          1.141000000000     0.017000000000     0.083000000000    15.994914619560
           C          2.558000000000     0.086000000000    -0.005000000000    12.000000000000
           C          3.192000000000    -0.789000000000     1.067000000000    12.000000000000
           O          4.610000000000    -0.719000000000     0.979000000000    15.994914619560
           H          0.789000000000     0.590000000000    -0.620000000000     1.007825032070
           H          2.874000000000     1.128000000000     0.115000000000     1.007825032070
           H          2.871000000000    -0.243000000000    -1.001000000000     1.007825032070
           H          2.876000000000    -1.830000000000     0.947000000000     1.007825032070
           H          2.879000000000    -0.459000000000     2.064000000000     1.007825032070
           H          4.886378000000    -1.427826000000     0.372315000000     1.007825032070

  Charge       = 0
  Multiplicity = 1
  Basis Set: CC-PVDZ
    Blend: CC-PVDZ
   => B3LYP Composite Functional <=
  Basis Set: (CC-PVDZ AUX)
    Blend: CC-PVDZ-JKFIT

    Orbital Energies (a.u.)
    -----------------------

    Doubly Occupied:

       1A    -19.134996     2A    -19.131387     3A    -10.227202
       4A    -10.224686     5A     -1.020762     6A     -1.009602
       7A     -0.730862     8A     -0.611408     9A     -0.522791
      10A     -0.494590    11A     -0.451562    12A     -0.428075
      13A     -0.397125    14A     -0.338353    15A     -0.326104
      16A     -0.270048    17A     -0.264636

  @DF-RKS Final Energy:  -230.25820996374287

   => Energetics <=

    Nuclear Repulsion Energy =            129.7146430861083672
    One-Electron Energy =                -571.1444701415957752
    Two-Electron Energy =                 235.7147598010496949
    DFT Exchange-Correlation Energy =     -24.5385720593051460
    Empirical Dispersion Energy =          -0.0045706500000000
    PCM Polarization Energy =               0.0000000000000000
    EFP Energy =                            0.0000000000000000
    Total Energy =                       -230.2582099637428712

  Mulliken Charges: (a.u.)
   Center  Symbol    Alpha    Beta     Spin     Total
       1     O     4.14073  4.14073  0.00000 -0.28146
       2     C     2.93834  2.93834  0.00000  0.12331
       3     C     2.93402  2.93402  0.00000  0.13195
       4     O     4.13956  4.13956  0.00000 -0.27912
       5     H     0.42819  0.42819  0.00000  0.14361
       6     H     0.49805  0.49805  0.00000  0.00390
       7     H     0.50752  0.50752  0.00000 -0.01503
       8     H     0.49706  0.49706  0.00000  0.00588
       9     H     0.48726  0.48726  0.00000  0.02548
      10     H     0.42926  0.42926  0.00000  0.14147

   Total alpha = 17.00000, Total beta = 17.00000, Total charge = -0.00000

*** Psi4 exiting successfully. Buy a developer a beer!
