                              Psi4 1.0.54 Driver

  ==> Input File <==

--------------------------------------------------------------------------
set_num_threads(1)
set_memory(3145728000)

set { reference rks }
set { basis 6-31G* }

molecule MOL {
    1 1
    noreorient
    nocom
    symmetry c1
    C    0.000000   0.000000  -0.177864
    C    0.036678   1.219374   0.524165
    C    0.031764   1.213119   1.915444
    C   -0.000000  -0.000000   2.610107
    C   -0.031764  -1.213119   1.915444
    C   -0.036677  -1.219374   0.524165
    C    0.000000  -0.000000  -1.644734
    H    0.018170   2.164705  -0.010853
    H    0.042402   2.152895   2.457886
    H   -0.000000  -0.000000   3.695756
    H   -0.042402  -2.152895   2.457886
    H   -0.018170  -2.164705  -0.010853
    N   -0.712590  -0.905950  -2.308460
    N    0.712590   0.905950  -2.308461
    H    0.673432   1.006469  -3.315997
    H    1.377190   1.485970  -1.813317
    H   -0.712057  -0.905273  -3.320035
    H   -1.216706  -1.654671  -1.847970
}

set optking { frozen_dihedral = (" 1 7 13 17 ") }

set optking { dynamic_level = 1
 geom_maxiter = 250
 print_trajectory_xyz_file = True }

energy, wfn = optimize('B3LYP-D3', return_wfn=True)

import os
os.chdir(os.environ['HTMD_PSI4_WORKDIR'])

oeprop(wfn, 'DIPOLE', 'QUADRUPOLE', 'MULLIKEN_CHARGES')

with open('psi4out.xyz', 'w') as f:
    f.write('18 ' )
    f.write('%.12f\n' % energy)
    f.write(MOL.save_string_xyz())
--------------------------------------------------------------------------

    Molecular point group: c1
  Charge       = 1
  Multiplicity = 1
  Basis Set: 6-31G*
   => B3LYP-D3 Composite Functional <=
  Basis Set:
  @DF-RKS Final Energy:  -381.46874640838411
    Total Energy =                       -381.4687464083841064
    Molecular point group: c1
  Basis Set: 6-31G*
  Basis Set:
   => B3LYP-D3 Composite Functional <=
  Basis Set: 6-31G*
   => B3LYP-D3 Composite Functional <=
  Basis Set:
  @DF-RKS Final Energy:  -381.46984410402172
    Total Energy =                       -381.4698441040218313
  Basis Set: 6-31G*
  Basis Set:
   => B3LYP-D3 Composite Functional <=
  Basis Set: 6-31G*
   => B3LYP-D3 Composite Functional <=
  Basis Set:
  @DF-RKS Final Energy:  -381.47030249289008
    Total Energy =                       -381.4703024928902551
  Basis Set: 6-31G*
  Basis Set:
   => B3LYP-D3 Composite Functional <=
  Basis Set:
  @DF-RKS Final Energy:  -381.47035984147578
    Total Energy =                       -381.4703598414758972
  Basis Set: 6-31G*
  Basis Set:
   => B3LYP-D3 Composite Functional <=
  Basis Set: 6-31G*
   => B3LYP-D3 Composite Functional <=
  Basis Set:
  @DF-RKS Final Energy:  -381.47036839028914
    Total Energy =                       -381.4703683902891953
  Basis Set: 6-31G*
  Basis Set:
   => B3LYP-D3 Composite Functional <=
  Charge       = 1
  Multiplicity = 1
  Basis Set: 6-31G*
   => B3LYP-D3 Composite Functional <=
  Basis Set:

    Orbital Energies (a.u.)
    -----------------------

    Doubly Occupied:

       1A    -14.568582     2A    -14.568330     3A    -10.497594
       4A    -10.373289     5A    -10.356116     6A    -10.355850
       7A    -10.342689     8A    -10.340301     9A    -10.340221
      10A     -1.184299    11A     -1.092545    12A     -1.014196
      13A     -0.926589    14A     -0.902069    15A     -0.845497
      16A     -0.785798    17A     -0.773752    18A     -0.741425
      19A     -0.732952    20A     -0.688561    21A     -0.668831
      22A     -0.625506    23A     -0.617306    24A     -0.587856
      25A     -0.578717    26A     -0.573027    27A     -0.518079
      28A     -0.505425    29A     -0.498006    30A     -0.473515
      31A     -0.411357    32A     -0.405557

  @DF-RKS Final Energy:  -381.47036991242879

   => Energetics <=

    Nuclear Repulsion Energy =            416.9297151177984802
    One-Electron Energy =               -1329.0646893570542488
    Two-Electron Energy =                 575.0823634914499962
    DFT Exchange-Correlation Energy =     -44.4058341746230312
    Empirical Dispersion Energy =          -0.0119249900000000
    PCM Polarization Energy =               0.0000000000000000
    EFP Energy =                            0.0000000000000000
    Total Energy =                       -381.4703699124288505
    Molecular point group: c1
  Basis Set: 6-31G*
  Basis Set:
   => B3LYP-D3 Composite Functional <=

  -Total Gradient:
     Atom            X                  Y                   Z
    ------   -----------------  -----------------  -----------------
       1       -0.000846723948     0.000668868384     0.000147449847
       2        0.000004830936     0.000001313619    -0.000032195302
       3       -0.000014600074    -0.000000946886     0.000015294792
       4        0.000002777363    -0.000022912655    -0.000008780835
       5       -0.000006622536     0.000044925463     0.000037658769
       6        0.000046587168    -0.000040672218    -0.000048583772
       7        0.000848495700    -0.000492996152    -0.000235143751
       8       -0.000000815846    -0.000005569171    -0.000010480400
       9       -0.000003257494     0.000000942980    -0.000001587265
      10        0.000003393076    -0.000000863694    -0.000001866110
      11       -0.000003937596    -0.000004980039    -0.000003149910
      12       -0.000032247490     0.000013231155    -0.000018555093
      13        0.001343587060    -0.001010942762     0.000041452163
      14       -0.000014929658    -0.000099709398     0.000048109976
      15       -0.000026754219     0.000004447276    -0.000010209482
      16       -0.000006685255     0.000003900144     0.000034154240
      17       -0.001242233191     0.000997124865    -0.000024791024
      18       -0.000053251761    -0.000056446927     0.000048472848

  **** Optimization is complete! (in 6 steps) ****
    Final optimized geometry and variables:
    Molecular point group: c1

    Geometry (in Angstrom), charge = 1, multiplicity = 1:

    C            0.015238973078    -0.008417949442    -0.179893225801
    C            0.032346412510     1.212349307817     0.520010144719
    C            0.016960451069     1.207935420532     1.911383513442
    C           -0.004636159588    -0.004263087393     2.607807583313
    C           -0.016161546745    -1.218670919096     1.914840071492
    C           -0.010850211421    -1.227139016668     0.523522578254
    C            0.021460950520    -0.009985946600    -1.647494403885
    H            0.006103577413     2.156773962353    -0.016247600280
    H            0.011809096555     2.148681329183     2.452243662240
    H           -0.012508417026    -0.002572210752     3.693421337123
    H           -0.018907253807    -2.157746235114     2.458619860773
    H            0.022711184665    -2.172848885125    -0.010138617572
    N           -0.678027975512    -0.926692376482    -2.311220311628
    N            0.720134903389     0.907854639501    -2.308711909363
    H            0.691083501708     1.001653155159    -3.317284812368
    H            1.374313337377     1.497556591384    -1.810997037697
    H           -0.704886039777    -0.968406608004    -3.323463330189
    H           -1.344324784407    -1.503566171254    -1.814088502575

  Mulliken Charges: (a.u.)
   Center  Symbol    Alpha    Beta     Spin     Total
       1     C     2.95748  2.95748  0.00000  0.08505
       2     C     3.08226  3.08226  0.00000 -0.16452
       3     C     3.06251  3.06251  0.00000 -0.12502
       4     C     3.05154  3.05154  0.00000 -0.10309
       5     C     3.06249  3.06249  0.00000 -0.12498
       6     C     3.08247  3.08247  0.00000 -0.16494
       7     C     2.72227  2.72227  0.00000  0.55546
       8     H     0.41440  0.41440  0.00000  0.17121
       9     H     0.40550  0.40550  0.00000  0.18900
      10     H     0.40396  0.40396  0.00000  0.19209
      11     H     0.40545  0.40545  0.00000  0.18910
      12     H     0.41365  0.41365  0.00000  0.17271
      13     N     3.86224  3.86224  0.00000 -0.72449
      14     N     3.86299  3.86299  0.00000 -0.72598
      15     H     0.30569  0.30569  0.00000  0.38863
      16     H     0.29945  0.29945  0.00000  0.40109
      17     H     0.30589  0.30589  0.00000  0.38822
      18     H     0.29977  0.29977  0.00000  0.40047

   Total alpha = 32.00000, Total beta = 32.00000, Total charge =  1.00000

*** Psi4 exiting successfully. Buy a developer a beer!
