                               Psi4 1.1 release

  ==> Input File <==

--------------------------------------------------------------------------
set {
	reference rks
	basis 6-31G*
}

set_num_threads( 8 )
memory 2 gb

molecule MOL {
1 1

C	 0.964026	 0.841648	 -2.375437
C	 2.178733	 1.197970	 -1.760144
C	 3.091171	 1.992627	 -2.446947
C	 2.796281	 2.441307	 -3.738052
C	 1.588327	 2.092832	 -4.350127
C	 0.672068	 1.290935	 -3.676962
C	 -0.000000	 -0.000000	 -1.658508
H	 2.430553	 0.816623	 -0.774548
H	 4.035547	 2.253644	 -1.980517
H	 3.509770	 3.064222	 -4.268660
H	 1.356936	 2.454291	 -5.346791
H	 -0.282980	 1.058326	 -4.139579
N	 -0.712589	 -0.905950	 -2.322235
N	 -0.159814	 0.144295	 -0.345991
H	 -0.742428	 -0.472078	 0.208456
H	 0.256407	 0.934759	 0.128573
H	 -1.377189	 -1.485970	 -1.827091
H	 -0.673431	 -1.006470	 -3.329771

	symmetry c1
}
set optking { dynamic_level = 1 }
set optking {
	frozen_dihedral = ("
		1 7 13 17
	")
}

ee,wfn = optimize('b3lyp-d3', return_wfn=True)
oeprop( wfn, 'DIPOLE', 'QUADRUPOLE', 'MULLIKEN_CHARGES')
f=open( 'psi4out.xyz', 'w' )
f.write( "18  " )
f.write( str(ee) + "\n" )
f.write( MOL.save_string_xyz() )
f.close()
--------------------------------------------------------------------------

    Molecular point group: c1
  Charge       = 1
  Multiplicity = 1
  Basis Set: 6-31G*
    Blend: 6-31G*
   => B3LYP Composite Functional <=
  Basis Set: (6-31G* AUX)
    Blend: CC-PVDZ-JKFIT
  @DF-RKS Final Energy:  -381.46874641551585
    Total Energy =                       -381.4687464155159091
    Molecular point group: c1
  Basis Set: 6-31G*
    Blend: 6-31G*
  Basis Set: (6-31G* AUX)
    Blend: CC-PVDZ-JKFIT
   => B3LYP Composite Functional <=
  Basis Set: 6-31G*
    Blend: 6-31G*
   => B3LYP Composite Functional <=
  Basis Set: (6-31G* AUX)
    Blend: CC-PVDZ-JKFIT
  @DF-RKS Final Energy:  -381.46984410502012
    Total Energy =                       -381.4698441050201154
  Basis Set: 6-31G*
    Blend: 6-31G*
  Basis Set: (6-31G* AUX)
  @DF-RKS Final Energy:  -381.47030249270756
    Total Energy =                       -381.4703024927076171
  @DF-RKS Final Energy:  -381.47035984086347
    Total Energy =                       -381.4703598408635230
   => B3LYP Composite Functional <=
  Basis Set: (6-31G* AUX)
    Blend: CC-PVDZ-JKFIT
  @DF-RKS Final Energy:  -381.47036839043341
    Total Energy =                       -381.4703683904334071
  Basis Set: 6-31G*
    Blend: 6-31G*
  Basis Set: (6-31G* AUX)
    Blend: CC-PVDZ-JKFIT
   => B3LYP Composite Functional <=
  Charge       = 1
  Multiplicity = 1
  Basis Set: 6-31G*
    Blend: 6-31G*
   => B3LYP Composite Functional <=
  Basis Set: (6-31G* AUX)
    Blend: CC-PVDZ-JKFIT

    Orbital Energies (a.u.)
    -----------------------

    Doubly Occupied:

       1A    -14.568582     2A    -14.568330     3A    -10.497594
       4A    -10.373289     5A    -10.356116     6A    -10.355850
       7A    -10.342689     8A    -10.340301     9A    -10.340221
      10A     -1.184299    11A     -1.092545    12A     -1.014196
      13A     -0.926589    14A     -0.902069    15A     -0.845497
      16A     -0.785798    17A     -0.773752    18A     -0.741425
      19A     -0.732952    20A     -0.688561    21A     -0.668831
      22A     -0.625506    23A     -0.617306    24A     -0.587856
      25A     -0.578717    26A     -0.573027    27A     -0.518079
      28A     -0.505425    29A     -0.498006    30A     -0.473515
      31A     -0.411357    32A     -0.405557

  @DF-RKS Final Energy:  -381.47036991259472

   => Energetics <=

    Nuclear Repulsion Energy =            416.9297035160854534
    One-Electron Energy =               -1329.0646666720226676
    Two-Electron Energy =                 575.0823521772096001
    DFT Exchange-Correlation Energy =     -44.4058339438671581
    Empirical Dispersion Energy =          -0.0119249900000000
    PCM Polarization Energy =               0.0000000000000000
    EFP Energy =                            0.0000000000000000
    Total Energy =                       -381.4703699125947196
    Molecular point group: c1
  Basis Set: 6-31G*
    Blend: 6-31G*
  Basis Set: (6-31G* AUX)
    Blend: CC-PVDZ-JKFIT
   => B3LYP Composite Functional <=

  -Total Gradient:
     Atom            X                  Y                   Z
    ------   -----------------  -----------------  -----------------
       1        0.000868567002    -0.000648704684     0.000104391346
       2       -0.000022309465    -0.000014615587     0.000018713714
       3        0.000015514903    -0.000003113393    -0.000014015956
       4       -0.000021335799    -0.000001317942    -0.000012336224
       5        0.000055742896     0.000013349310     0.000013708394
       6       -0.000076813379     0.000012713478     0.000011046863
       7       -0.000816081904     0.000588848662     0.000075234323
       8       -0.000010075221    -0.000006305214     0.000000428773
       9        0.000000858914    -0.000003638664     0.000000177585
      10       -0.000003175840     0.000001753620     0.000001609937
      11       -0.000003584420    -0.000004708139    -0.000003908166
      12        0.000009510478    -0.000037803529     0.000006338970
      13       -0.001165310862     0.001184329541    -0.000261416082
      14       -0.000025040231     0.000021673842    -0.000106669288
      15        0.000007150055    -0.000027990550    -0.000002338504
      16        0.000027664888     0.000013894008    -0.000016364622
      17        0.001125654326    -0.001091152830     0.000283378284
      18        0.000018288773    -0.000012134664    -0.000088817238

  **** Optimization is complete! (in 6 steps) ****
    Final optimized geometry and variables:
    Molecular point group: c1

    Geometry (in Angstrom), charge = 1, multiplicity = 1:

    C           -0.128758396247    -0.105901693968     0.094397434972
    C            1.093519047260     0.233132226752     0.703925150073
    C            2.011508255655     1.019174913276     0.014281170006
    C            1.714153380053     1.477110909276    -1.272875785971
    C            0.498134542697     1.146216353817    -1.878623564254
    C           -0.423771863376     0.352786075056    -1.203033901060
    C           -1.096826115226    -0.942790471704     0.812976998010
    H            1.347150432815    -0.155186381354     1.686309359180
    H            2.961984063702     1.266329991439     0.475875341909
    H            2.431938697440     2.093470587674    -1.805329626355
    H            0.264801441307     1.514843253614    -2.872221297184
    H           -1.384389423452     0.133272722418    -1.660544177764
    N           -1.821609034675    -1.837367921151     0.146202287483
    N           -1.241744114373    -0.809164738670     2.127864159811
    H           -1.833453280618    -1.417458676185     2.681687458871
    H           -0.813423258923    -0.026343342870     2.604466574776
    H           -2.502042169583    -2.437482224946     0.597833766852
    H           -1.583022509711    -2.060074435342    -0.811583270178

  Mulliken Charges: (a.u.)
   Center  Symbol    Alpha    Beta     Spin     Total
       1     C     2.95748  2.95748  0.00000  0.08505
       2     C     3.08226  3.08226  0.00000 -0.16452
       3     C     3.06251  3.06251  0.00000 -0.12502
       4     C     3.05154  3.05154  0.00000 -0.10309
       5     C     3.06249  3.06249  0.00000 -0.12498
       6     C     3.08247  3.08247  0.00000 -0.16494
       7     C     2.72227  2.72227  0.00000  0.55546
       8     H     0.41440  0.41440  0.00000  0.17121
       9     H     0.40550  0.40550  0.00000  0.18900
      10     H     0.40396  0.40396  0.00000  0.19209
      11     H     0.40545  0.40545  0.00000  0.18910
      12     H     0.41365  0.41365  0.00000  0.17271
      13     N     3.86224  3.86224  0.00000 -0.72449
      14     N     3.86299  3.86299  0.00000 -0.72598
      15     H     0.30569  0.30569  0.00000  0.38863
      16     H     0.29945  0.29945  0.00000  0.40109
      17     H     0.30589  0.30589  0.00000  0.38822
      18     H     0.29977  0.29977  0.00000  0.40047

   Total alpha = 32.00000, Total beta = 32.00000, Total charge =  1.00000

*** Psi4 exiting successfully. Buy a developer a beer!
