                               Psi4 1.1 release

  ==> Input File <==

--------------------------------------------------------------------------
set {
	reference rks
	basis 6-31G*
}

set_num_threads( 8 )
memory 2 gb

molecule MOL {
1 1

C	 1.050132	 -0.431737	 -0.729783
C	 1.271123	 0.283957	 0.461858
C	 2.265505	 -0.133130	 1.341041
C	 3.046042	 -1.252308	 1.035379
C	 2.831959	 -1.962572	 -0.149915
C	 1.834307	 -1.560682	 -1.032465
C	 -0.000000	 -0.000000	 -1.658508
H	 0.639205	 1.127967	 0.723708
H	 2.425327	 0.407347	 2.268336
H	 3.823258	 -1.571842	 1.722740
H	 3.448807	 -2.822358	 -0.390332
H	 1.700186	 -2.089752	 -1.971791
N	 -0.712589	 -0.905950	 -2.322235
N	 -0.237735	 1.296654	 -1.835239
H	 -1.009733	 1.643622	 -2.392372
H	 0.404547	 1.982511	 -1.460596
H	 -1.377189	 -1.485970	 -1.827091
H	 -0.673431	 -1.006470	 -3.329771

	symmetry c1
}
set optking { dynamic_level = 1 }
set optking {
	frozen_dihedral = ("
		1 7 13 17
	")
}

ee,wfn = optimize('b3lyp-d3', return_wfn=True)
oeprop( wfn, 'DIPOLE', 'QUADRUPOLE', 'MULLIKEN_CHARGES')
f=open( 'psi4out.xyz', 'w' )
f.write( "18  " )
f.write( str(ee) + "\n" )
f.write( MOL.save_string_xyz() )
f.close()
--------------------------------------------------------------------------

    Molecular point group: c1
  Charge       = 1
  Multiplicity = 1
  Basis Set: 6-31G*
    Blend: 6-31G*
   => B3LYP Composite Functional <=
  Basis Set: (6-31G* AUX)
    Blend: CC-PVDZ-JKFIT
  @DF-RKS Final Energy:  -381.43913291332711
    Total Energy =                       -381.4391329133271711
    Molecular point group: c1
  Basis Set: 6-31G*
    Blend: 6-31G*
  Basis Set: (6-31G* AUX)
    Blend: CC-PVDZ-JKFIT
   => B3LYP Composite Functional <=
  Basis Set: 6-31G*
    Blend: 6-31G*
   => B3LYP Composite Functional <=
  Basis Set: (6-31G* AUX)
    Blend: CC-PVDZ-JKFIT
  @DF-RKS Final Energy:  -381.44794222309946
    Total Energy =                       -381.4479422230994032
  Basis Set: 6-31G*
    Blend: 6-31G*
  Basis Set: (6-31G* AUX)
  @DF-RKS Final Energy:  -381.45261646621003
    Total Energy =                       -381.4526164662100882
  @DF-RKS Final Energy:  -381.45498070501174
    Total Energy =                       -381.4549807050116783
  @DF-RKS Final Energy:  -381.45735970072280
    Total Energy =                       -381.4573597007228045
  @DF-RKS Final Energy:  -381.45752649665332
    Total Energy =                       -381.4575264966533155
  @DF-RKS Final Energy:  -381.45757303441030
    Total Energy =                       -381.4575730344103022
  @DF-RKS Final Energy:  -381.45757905951029
    Total Energy =                       -381.4575790595103513
  @DF-RKS Final Energy:  -381.45755970251167
    Total Energy =                       -381.4575597025116735
   => B3LYP Composite Functional <=
  Basis Set: (6-31G* AUX)
    Blend: CC-PVDZ-JKFIT
  @DF-RKS Final Energy:  -381.45757905948932
    Total Energy =                       -381.4575790594893192
  Basis Set: 6-31G*
    Blend: 6-31G*
  Basis Set: (6-31G* AUX)
    Blend: CC-PVDZ-JKFIT
   => B3LYP Composite Functional <=
  Charge       = 1
  Multiplicity = 1
  Basis Set: 6-31G*
    Blend: 6-31G*
   => B3LYP Composite Functional <=
  Basis Set: (6-31G* AUX)
    Blend: CC-PVDZ-JKFIT

    Orbital Energies (a.u.)
    -----------------------

    Doubly Occupied:

       1A    -14.577717     2A    -14.553872     3A    -10.496582
       4A    -10.372552     5A    -10.359280     6A    -10.355501
       7A    -10.347730     8A    -10.342589     9A    -10.340602
      10A     -1.181689    11A     -1.086859    12A     -1.015400
      13A     -0.928838    14A     -0.903428    15A     -0.842553
      16A     -0.778195    17A     -0.771752    18A     -0.736623
      19A     -0.725173    20A     -0.694823    21A     -0.668246
      22A     -0.626283    23A     -0.606331    24A     -0.581345
      25A     -0.580550    26A     -0.565479    27A     -0.517408
      28A     -0.507223    29A     -0.498593    30A     -0.478456
      31A     -0.414625    32A     -0.406985

  @DF-RKS Final Energy:  -381.45757918279855

   => Energetics <=

    Nuclear Repulsion Energy =            416.4195799934204842
    One-Electron Energy =               -1328.0872265986563434
    Two-Electron Energy =                 574.6172061484056712
    DFT Exchange-Correlation Energy =     -44.3954122459684228
    Empirical Dispersion Energy =          -0.0117264800000000
    PCM Polarization Energy =               0.0000000000000000
    EFP Energy =                            0.0000000000000000
    Total Energy =                       -381.4575791827986109
    Molecular point group: c1
  Basis Set: 6-31G*
    Blend: 6-31G*
  Basis Set: (6-31G* AUX)
    Blend: CC-PVDZ-JKFIT
   => B3LYP Composite Functional <=

  -Total Gradient:
     Atom            X                  Y                   Z
    ------   -----------------  -----------------  -----------------
       1        0.007218470837     0.002250607153    -0.007119493529
       2        0.000020000401     0.000015222227    -0.000002398586
       3       -0.000012007023     0.000006308960     0.000000547046
       4        0.000001805601    -0.000003034961     0.000004959862
       5       -0.000021652622    -0.000012256234    -0.000000736137
       6        0.000041064131     0.000014329787    -0.000012178100
       7       -0.014919207208    -0.000552925300     0.010284205599
       8        0.000004366971     0.000004517123     0.000000494337
       9       -0.000004013882     0.000001045584     0.000000706394
      10        0.000002214399     0.000003911732    -0.000002904353
      11       -0.000004287691    -0.000002862965    -0.000001295528
      12        0.000000792127    -0.000003139875    -0.000002362735
      13        0.019133131123    -0.010207639613    -0.001317770245
      14        0.000011584011    -0.000033640636     0.000006128481
      15        0.000009777553     0.000000275299    -0.000004269918
      16        0.000003990091     0.000012913191    -0.000001425405
      17       -0.011497775898     0.008501483171    -0.001842493901
      18        0.000006187438     0.000002572940    -0.000000552127

  **** Optimization is complete! (in 2 steps) ****
    Final optimized geometry and variables:
    Molecular point group: c1

    Geometry (in Angstrom), charge = 1, multiplicity = 1:

    C           -0.166052955643     0.053944989058    -0.091125022602
    C            0.096304414843     0.809122041394     1.073451666227
    C            1.108490858431     0.415389129034     1.937953891717
    C            1.859564946169    -0.732861214529     1.656065020746
    C            1.595046611163    -1.493535836135     0.512484011973
    C            0.582568447914    -1.111310968246    -0.359979321951
    C           -1.201539702984     0.465622837931    -1.024709206594
    H           -0.519215976466     1.668925293765     1.324706913582
    H            1.305383519664     0.988662271630     2.837937099545
    H            2.651380377169    -1.036751689929     2.334074486076
    H            2.185154889883    -2.378527019530     0.297919381040
    H            0.393243402230    -1.676421916540    -1.266015381204
    N           -1.743842751933    -0.452559741040    -1.876753638870
    N           -1.459137073950     1.754475428613    -1.210367736978
    H           -2.221193139577     2.076375749765    -1.796718946713
    H           -0.866445727040     2.465813989829    -0.798000865566
    H           -2.338413186010    -1.164730340322    -1.457970020231
    H           -2.218180666773    -0.057551177377    -2.686959727390

  Mulliken Charges: (a.u.)
   Center  Symbol    Alpha    Beta     Spin     Total
       1     C     2.95082  2.95082  0.00000  0.09836
       2     C     3.08467  3.08467  0.00000 -0.16933
       3     C     3.06274  3.06274  0.00000 -0.12548
       4     C     3.04974  3.04974  0.00000 -0.09948
       5     C     3.06260  3.06260  0.00000 -0.12519
       6     C     3.07164  3.07164  0.00000 -0.14329
       7     C     2.75681  2.75681  0.00000  0.48637
       8     H     0.41548  0.41548  0.00000  0.16904
       9     H     0.40495  0.40495  0.00000  0.19010
      10     H     0.40259  0.40259  0.00000  0.19481
      11     H     0.40443  0.40443  0.00000  0.19114
      12     H     0.40418  0.40418  0.00000  0.19163
      13     N     3.85798  3.85798  0.00000 -0.71596
      14     N     3.84887  3.84887  0.00000 -0.69775
      15     H     0.30472  0.30472  0.00000  0.39056
      16     H     0.29929  0.29929  0.00000  0.40142
      17     H     0.30248  0.30248  0.00000  0.39504
      18     H     0.31600  0.31600  0.00000  0.36799

   Total alpha = 32.00000, Total beta = 32.00000, Total charge =  1.00000

*** Psi4 exiting successfully. Buy a developer a beer!
