                               Psi4 1.1 release

  ==> Input File <==

--------------------------------------------------------------------------
set_num_threads(1)
set_memory(4203741184)

set { reference rks }
set { basis cc-pVDZ }

molecule MOL {
    0 1
    noreorient
    nocom
    symmetry c1
    O    1.141000   0.017000   0.083000
    C    2.558000   0.086000  -0.005000
    C    3.192000  -0.789000   1.067000
    O    4.610000  -0.719000   0.979000
    H    0.848240  -0.606350  -0.604145
    H    2.874000   1.128000   0.115000
    H    2.871000  -0.243000  -1.001000
    H    2.876000  -1.830000   0.947000
    H    2.879000  -0.459000   2.064000
    H    4.961000  -1.293000   1.682000
}

set optking { frozen_dihedral = (" 3 2 1 5 ") }

energy, wfn = energy('B3LYP-D3', return_wfn=True)

import os
os.chdir(os.environ['HTMD_PSI4_WORKDIR'])

oeprop(wfn, 'DIPOLE', 'QUADRUPOLE', 'MULLIKEN_CHARGES')

with open('psi4out.xyz', 'w') as f:
    f.write('10 ' )
    f.write('%.12f\n' % energy)
    f.write(MOL.save_string_xyz())
--------------------------------------------------------------------------

    Molecular point group: c1

    Geometry (in Angstrom), charge = 0, multiplicity = 1:

       Center              X                  Y                   Z               Mass
    ------------   -----------------  -----------------  -----------------  -----------------
           O          1.141000000000     0.017000000000     0.083000000000    15.994914619560
           C          2.558000000000     0.086000000000    -0.005000000000    12.000000000000
           C          3.192000000000    -0.789000000000     1.067000000000    12.000000000000
           O          4.610000000000    -0.719000000000     0.979000000000    15.994914619560
           H          0.848240000000    -0.606350000000    -0.604145000000     1.007825032070
           H          2.874000000000     1.128000000000     0.115000000000     1.007825032070
           H          2.871000000000    -0.243000000000    -1.001000000000     1.007825032070
           H          2.876000000000    -1.830000000000     0.947000000000     1.007825032070
           H          2.879000000000    -0.459000000000     2.064000000000     1.007825032070
           H          4.961000000000    -1.293000000000     1.682000000000     1.007825032070

  Charge       = 0
  Multiplicity = 1
  Basis Set: CC-PVDZ
    Blend: CC-PVDZ
   => B3LYP Composite Functional <=
  Basis Set: (CC-PVDZ AUX)
    Blend: CC-PVDZ-JKFIT

    Orbital Energies (a.u.)
    -----------------------

    Doubly Occupied:

       1A    -19.134523     2A    -19.130870     3A    -10.227011
       4A    -10.224017     5A     -1.020367     6A     -1.009091
       7A     -0.730769     8A     -0.609594     9A     -0.523968
      10A     -0.493567    11A     -0.452689    12A     -0.425833
      13A     -0.396793    14A     -0.337960    15A     -0.325527
      16A     -0.269673    17A     -0.263980

  @DF-RKS Final Energy:  -230.25771236116617

   => Energetics <=

    Nuclear Repulsion Energy =            129.6598075394541354
    One-Electron Energy =                -571.0496421353245751
    Two-Electron Energy =                 235.6754785024309058
    DFT Exchange-Correlation Energy =     -24.5388333977266804
    Empirical Dispersion Energy =          -0.0045228700000000
    PCM Polarization Energy =               0.0000000000000000
    EFP Energy =                            0.0000000000000000
    Total Energy =                       -230.2577123611661705

  Mulliken Charges: (a.u.)
   Center  Symbol    Alpha    Beta     Spin     Total
       1     O     4.13949  4.13949  0.00000 -0.27897
       2     C     2.93560  2.93560  0.00000  0.12880
       3     C     2.93687  2.93687  0.00000  0.12626
       4     O     4.14117  4.14117  0.00000 -0.28235
       5     H     0.42857  0.42857  0.00000  0.14286
       6     H     0.48861  0.48861  0.00000  0.02279
       7     H     0.49723  0.49723  0.00000  0.00553
       8     H     0.50646  0.50646  0.00000 -0.01292
       9     H     0.49790  0.49790  0.00000  0.00419
      10     H     0.42810  0.42810  0.00000  0.14380

   Total alpha = 17.00000, Total beta = 17.00000, Total charge = -0.00000

*** Psi4 exiting successfully. Buy a developer a beer!
