                               Psi4 1.1 release

  ==> Input File <==

--------------------------------------------------------------------------
set {
	reference rks
	basis 6-31G*
}

set_num_threads( 8 )
memory 2 gb

molecule MOL {
1 1

C	 0.720408	 -0.384683	 -0.440011
C	 0.811406	 0.517802	 0.636234
C	 1.492026	 0.145489	 1.791162
C	 2.089635	 -1.115823	 1.875899
C	 2.004920	 -2.012788	 0.806552
C	 1.318971	 -1.655381	 -0.349932
C	 -0.000000	 -0.000000	 -1.658508
H	 0.312505	 1.481821	 0.591468
H	 1.548044	 0.833659	 2.628311
H	 2.622819	 -1.400532	 2.777725
H	 2.481711	 -2.985466	 0.870593
H	 1.292357	 -2.338784	 -1.194023
N	 -0.712589	 -0.905950	 -2.322235
N	 0.060651	 1.254072	 -2.097470
H	 -0.490491	 1.591086	 -2.878130
H	 0.726233	 1.898600	 -1.691429
H	 -1.377189	 -1.485970	 -1.827091
H	 -0.673431	 -1.006470	 -3.329771

	symmetry c1
}
set optking { dynamic_level = 1 }
set optking {
	frozen_dihedral = ("
		1 7 13 17
	")
}

ee,wfn = optimize('b3lyp-d3', return_wfn=True)
oeprop( wfn, 'DIPOLE', 'QUADRUPOLE', 'MULLIKEN_CHARGES')
f=open( 'psi4out.xyz', 'w' )
f.write( "18  " )
f.write( str(ee) + "\n" )
f.write( MOL.save_string_xyz() )
f.close()
--------------------------------------------------------------------------

    Molecular point group: c1
  Charge       = 1
  Multiplicity = 1
  Basis Set: 6-31G*
    Blend: 6-31G*
   => B3LYP Composite Functional <=
  Basis Set: (6-31G* AUX)
    Blend: CC-PVDZ-JKFIT
  @DF-RKS Final Energy:  -381.45508940312652
    Total Energy =                       -381.4550894031265216
    Molecular point group: c1
  Basis Set: 6-31G*
    Blend: 6-31G*
  Basis Set: (6-31G* AUX)
    Blend: CC-PVDZ-JKFIT
   => B3LYP Composite Functional <=
  Basis Set: 6-31G*
    Blend: 6-31G*
   => B3LYP Composite Functional <=
  Basis Set: (6-31G* AUX)
    Blend: CC-PVDZ-JKFIT
  @DF-RKS Final Energy:  -381.46112699496268
    Total Energy =                       -381.4611269949626831
  Basis Set: 6-31G*
    Blend: 6-31G*
  Basis Set: (6-31G* AUX)
  @DF-RKS Final Energy:  -381.46286339776424
    Total Energy =                       -381.4628633977642380
  @DF-RKS Final Energy:  -381.46483382460093
    Total Energy =                       -381.4648338246009871
  @DF-RKS Final Energy:  -381.46494276303713
    Total Energy =                       -381.4649427630371292
   => B3LYP Composite Functional <=
  Basis Set: (6-31G* AUX)
    Blend: CC-PVDZ-JKFIT
  @DF-RKS Final Energy:  -381.46495421912317
    Total Energy =                       -381.4649542191231717
  Basis Set: 6-31G*
    Blend: 6-31G*
  Basis Set: (6-31G* AUX)
    Blend: CC-PVDZ-JKFIT
   => B3LYP Composite Functional <=
  Charge       = 1
  Multiplicity = 1
  Basis Set: 6-31G*
    Blend: 6-31G*
   => B3LYP Composite Functional <=
  Basis Set: (6-31G* AUX)
    Blend: CC-PVDZ-JKFIT

    Orbital Energies (a.u.)
    -----------------------

    Doubly Occupied:

       1A    -14.573702     2A    -14.561245     3A    -10.496697
       4A    -10.372290     5A    -10.357646     6A    -10.355186
       7A    -10.345398     8A    -10.341287     9A    -10.340141
      10A     -1.182965    11A     -1.090041    12A     -1.014610
      13A     -0.927711    14A     -0.902524    15A     -0.843386
      16A     -0.781237    17A     -0.772298    18A     -0.737475
      19A     -0.729636    20A     -0.693646    21A     -0.668646
      22A     -0.625604    23A     -0.609399    24A     -0.583517
      25A     -0.579640    26A     -0.569403    27A     -0.517790
      28A     -0.506104    29A     -0.497985    30A     -0.477906
      31A     -0.413184    32A     -0.406105

  @DF-RKS Final Energy:  -381.46495545563806

   => Energetics <=

    Nuclear Repulsion Energy =            416.7070548141372797
    One-Electron Energy =               -1328.6510711145306232
    Two-Electron Energy =                 574.8914152614925115
    DFT Exchange-Correlation Energy =     -44.4004973467372821
    Empirical Dispersion Energy =          -0.0118570700000000
    PCM Polarization Energy =               0.0000000000000000
    EFP Energy =                            0.0000000000000000
    Total Energy =                       -381.4649554556380622
    Molecular point group: c1
  Basis Set: 6-31G*
    Blend: 6-31G*
  Basis Set: (6-31G* AUX)
    Blend: CC-PVDZ-JKFIT
   => B3LYP Composite Functional <=

  -Total Gradient:
     Atom            X                  Y                   Z
    ------   -----------------  -----------------  -----------------
       1        0.005968280456    -0.000638312056    -0.003811930114
       2        0.000026271553    -0.000009660201     0.000058344302
       3       -0.000006255015     0.000019873438    -0.000012739140
       4        0.000000691667     0.000008000079     0.000006632689
       5       -0.000011372183    -0.000005079594    -0.000032107033
       6       -0.000007066279    -0.000002416049     0.000056230768
       7       -0.011913745728     0.002945374101     0.005208998807
       8       -0.000010586599    -0.000012797499     0.000025227939
       9        0.000004447386    -0.000003161351     0.000002906466
      10       -0.000005127695     0.000005487907     0.000002044268
      11       -0.000000915988     0.000001887919     0.000001081863
      12        0.000007846272     0.000002404854    -0.000005685486
      13        0.013890189007    -0.008247592120     0.000122994481
      14       -0.000030082290     0.000059435717    -0.000062021926
      15        0.000009856305    -0.000004807656     0.000010187042
      16       -0.000006594656    -0.000010407403    -0.000028465154
      17       -0.007896357150     0.005887948779    -0.001553595744
      18       -0.000023495968    -0.000004394888    -0.000008544213

  **** Optimization is complete! (in 7 steps) ****
    Final optimized geometry and variables:
    Molecular point group: c1

    Geometry (in Angstrom), charge = 1, multiplicity = 1:

    C           -0.116716635400     0.055907395334    -0.144706108944
    C           -0.000381560619     0.972792855317     0.920641338381
    C            0.692854224363     0.611038077399     2.069235582368
    C            1.270017102415    -0.660393674121     2.165199511189
    C            1.150690750997    -1.576008734763     1.114638486321
    C            0.455427867673    -1.227689164853    -0.038141189302
    C           -0.826633382653     0.427572027570    -1.363846805342
    H           -0.489221967883     1.942020032053     0.870333749044
    H            0.773450634454     1.310729010581     2.894691335235
    H            1.812798763742    -0.938501300326     3.063487315468
    H            1.608514070240    -2.556837850235     1.191445680273
    H            0.392557865761    -1.921594675458    -0.870015884263
    N           -1.393053957609    -0.530946417859    -2.124873875968
    N           -0.778168296465     1.677887423399    -1.810346052483
    H           -1.317947915474     1.994242251515    -2.607905171979
    H           -0.136500455830     2.343886854543    -1.397665942308
    H           -1.990156387545    -1.208314859705    -1.661011626868
    H           -1.744273722587    -0.270394858328    -3.042235095598

  Mulliken Charges: (a.u.)
   Center  Symbol    Alpha    Beta     Spin     Total
       1     C     2.95551  2.95551  0.00000  0.08898
       2     C     3.08421  3.08421  0.00000 -0.16842
       3     C     3.06267  3.06267  0.00000 -0.12534
       4     C     3.05052  3.05052  0.00000 -0.10104
       5     C     3.06264  3.06264  0.00000 -0.12528
       6     C     3.07536  3.07536  0.00000 -0.15072
       7     C     2.74178  2.74178  0.00000  0.51645
       8     H     0.41499  0.41499  0.00000  0.17001
       9     H     0.40528  0.40528  0.00000  0.18943
      10     H     0.40324  0.40324  0.00000  0.19351
      11     H     0.40494  0.40494  0.00000  0.19012
      12     H     0.40802  0.40802  0.00000  0.18396
      13     N     3.85841  3.85841  0.00000 -0.71682
      14     N     3.85444  3.85444  0.00000 -0.70887
      15     H     0.30519  0.30519  0.00000  0.38962
      16     H     0.29930  0.29930  0.00000  0.40139
      17     H     0.30171  0.30171  0.00000  0.39658
      18     H     0.31177  0.31177  0.00000  0.37645

   Total alpha = 32.00000, Total beta = 32.00000, Total charge =  1.00000

*** Psi4 exiting successfully. Buy a developer a beer!
