                               Psi4 1.1 release

  ==> Input File <==

--------------------------------------------------------------------------
set_num_threads(1)
set_memory(3145728000)

set { reference rks }
set { basis 6-31G* }

molecule MOL {
    1 1
    noreorient
    nocom
    symmetry c1
    C    0.000000   0.000000  -0.177864
    C    0.036678   1.219374   0.524165
    C    0.031764   1.213119   1.915444
    C   -0.000000  -0.000000   2.610107
    C   -0.031764  -1.213119   1.915444
    C   -0.036677  -1.219374   0.524165
    C    0.000000  -0.000000  -1.644734
    H    0.018170   2.164705  -0.010853
    H    0.042402   2.152895   2.457886
    H   -0.000000  -0.000000   3.695756
    H   -0.042402  -2.152895   2.457886
    H   -0.018170  -2.164705  -0.010853
    N   -0.712590  -0.905950  -2.308460
    N    0.712590   0.905950  -2.308461
    H    0.673432   1.006469  -3.315997
    H    1.377190   1.485970  -1.813317
    H   -1.684640  -1.055027  -2.071444
    H   -0.346372  -1.422111  -3.099807
}

set optking { frozen_dihedral = (" 1 7 13 17 ") }

set optking { dynamic_level = 1
 geom_maxiter = 250
 print_trajectory_xyz_file = True }

energy, wfn = optimize('B3LYP-D3', return_wfn=True)

import os
os.chdir(os.environ['HTMD_PSI4_WORKDIR'])

oeprop(wfn, 'DIPOLE', 'QUADRUPOLE', 'MULLIKEN_CHARGES')

with open('psi4out.xyz', 'w') as f:
    f.write('18 ' )
    f.write('%.12f\n' % energy)
    f.write(MOL.save_string_xyz())
--------------------------------------------------------------------------

    Molecular point group: c1
  Charge       = 1
  Multiplicity = 1
  Basis Set: 6-31G*
    Blend: 6-31G*
   => B3LYP Composite Functional <=
  Basis Set: (6-31G* AUX)
    Blend: CC-PVDZ-JKFIT
  @DF-RKS Final Energy:  -381.45508935116868
    Total Energy =                       -381.4550893511686809
    Molecular point group: c1
  Basis Set: 6-31G*
    Blend: 6-31G*
  Basis Set: (6-31G* AUX)
    Blend: CC-PVDZ-JKFIT
   => B3LYP Composite Functional <=
  Basis Set: 6-31G*
    Blend: 6-31G*
   => B3LYP Composite Functional <=
  Basis Set: (6-31G* AUX)
    Blend: CC-PVDZ-JKFIT
  @DF-RKS Final Energy:  -381.46112698615792
    Total Energy =                       -381.4611269861579217
  Basis Set: 6-31G*
    Blend: 6-31G*
  Basis Set: (6-31G* AUX)
  @DF-RKS Final Energy:  -381.46286339401064
    Total Energy =                       -381.4628633940105829
  @DF-RKS Final Energy:  -381.46483381775010
    Total Energy =                       -381.4648338177500477
  @DF-RKS Final Energy:  -381.46494275125730
    Total Energy =                       -381.4649427512572970
   => B3LYP Composite Functional <=
  Basis Set: (6-31G* AUX)
    Blend: CC-PVDZ-JKFIT
  @DF-RKS Final Energy:  -381.46495420801267
    Total Energy =                       -381.4649542080126139
  Basis Set: 6-31G*
    Blend: 6-31G*
  Basis Set: (6-31G* AUX)
    Blend: CC-PVDZ-JKFIT
   => B3LYP Composite Functional <=
  Charge       = 1
  Multiplicity = 1
  Basis Set: 6-31G*
    Blend: 6-31G*
   => B3LYP Composite Functional <=
  Basis Set: (6-31G* AUX)
    Blend: CC-PVDZ-JKFIT

    Orbital Energies (a.u.)
    -----------------------

    Doubly Occupied:

       1A    -14.573702     2A    -14.561245     3A    -10.496697
       4A    -10.372290     5A    -10.357646     6A    -10.355186
       7A    -10.345398     8A    -10.341287     9A    -10.340141
      10A     -1.182965    11A     -1.090041    12A     -1.014611
      13A     -0.927711    14A     -0.902524    15A     -0.843386
      16A     -0.781237    17A     -0.772298    18A     -0.737475
      19A     -0.729636    20A     -0.693646    21A     -0.668646
      22A     -0.625604    23A     -0.609399    24A     -0.583517
      25A     -0.579640    26A     -0.569403    27A     -0.517790
      28A     -0.506104    29A     -0.497985    30A     -0.477906
      31A     -0.413184    32A     -0.406105

  @DF-RKS Final Energy:  -381.46495544569257

   => Energetics <=

    Nuclear Repulsion Energy =            416.7070589891718555
    One-Electron Energy =               -1328.6510792261410643
    Two-Electron Energy =                 574.8914193675341266
    DFT Exchange-Correlation Energy =     -44.4004975062575156
    Empirical Dispersion Energy =          -0.0118570700000000
    PCM Polarization Energy =               0.0000000000000000
    EFP Energy =                            0.0000000000000000
    Total Energy =                       -381.4649554456926239
    Molecular point group: c1
  Basis Set: 6-31G*
    Blend: 6-31G*
  Basis Set: (6-31G* AUX)
    Blend: CC-PVDZ-JKFIT
   => B3LYP Composite Functional <=

  -Total Gradient:
     Atom            X                  Y                   Z
    ------   -----------------  -----------------  -----------------
       1        0.006167562779    -0.003538315209    -0.000068005468
       2       -0.000003420027     0.000009653676     0.000063906144
       3        0.000007377769     0.000013621767    -0.000018800604
       4        0.000001293362     0.000009594414     0.000003723633
       5        0.000000326210    -0.000015117951    -0.000030957147
       6       -0.000027744188     0.000022938532     0.000043886448
       7       -0.010756992963     0.007534375565    -0.002296450656
       8       -0.000023331905     0.000001727638     0.000019103978
       9        0.000001393474    -0.000002625652     0.000005420840
      10       -0.000002877319     0.000006871488    -0.000002290833
      11       -0.000000417734     0.000002362747    -0.000000072635
      12        0.000009655620    -0.000002009317    -0.000001462785
      13        0.008329881450    -0.010441178860     0.009086826920
      14        0.000021399261     0.000033461435    -0.000081876764
      15        0.000002588052    -0.000002300749     0.000014583889
      16        0.000000866516    -0.000019450111    -0.000024160692
      17       -0.003708325245     0.006373537084    -0.006712704957
      18       -0.000018301450    -0.000001925463    -0.000017466677

  **** Optimization is complete! (in 7 steps) ****
    Final optimized geometry and variables:
    Molecular point group: c1

    Geometry (in Angstrom), charge = 1, multiplicity = 1:

    C           -0.017026790150     0.004901142655    -0.169459914735
    C            0.050682654335     1.226493389467     0.532185001908
    C            0.062905070767     1.223945745158     1.921629164073
    C            0.005793855919     0.011366098945     2.618230631246
    C           -0.069399798518    -1.202267217283     1.927066210985
    C           -0.087118678339    -1.212796978054     0.536673083845
    C           -0.013165089458    -0.009259674449    -1.628296903100
    H            0.044744950418     2.171753206795    -0.003861289417
    H            0.103088206746     2.163254730065     2.463407940141
    H            0.017786660300     0.013459690370     3.703923288371
    H           -0.103929918175    -2.139477206640     2.472934631228
    H           -0.107744372838    -2.153823740947    -0.003249212508
    N           -0.587945128309    -1.035965907484    -2.287276616917
    N            0.690496057988     0.893098770911    -2.303285172475
    H            0.658915384630     0.965783905219    -3.313860474487
    H            1.341110657050     1.500334879066    -1.820002011868
    H           -1.530494161000    -1.299376199179    -2.017565969647
    H           -0.439088561365    -1.106123634616    -3.290129386641

  Mulliken Charges: (a.u.)
   Center  Symbol    Alpha    Beta     Spin     Total
       1     C     2.95551  2.95551  0.00000  0.08898
       2     C     3.08421  3.08421  0.00000 -0.16842
       3     C     3.06267  3.06267  0.00000 -0.12534
       4     C     3.05052  3.05052  0.00000 -0.10104
       5     C     3.06264  3.06264  0.00000 -0.12528
       6     C     3.07536  3.07536  0.00000 -0.15072
       7     C     2.74178  2.74178  0.00000  0.51645
       8     H     0.41499  0.41499  0.00000  0.17001
       9     H     0.40528  0.40528  0.00000  0.18943
      10     H     0.40324  0.40324  0.00000  0.19351
      11     H     0.40494  0.40494  0.00000  0.19012
      12     H     0.40802  0.40802  0.00000  0.18396
      13     N     3.85841  3.85841  0.00000 -0.71682
      14     N     3.85444  3.85444  0.00000 -0.70887
      15     H     0.30519  0.30519  0.00000  0.38962
      16     H     0.29930  0.29930  0.00000  0.40139
      17     H     0.30171  0.30171  0.00000  0.39658
      18     H     0.31177  0.31177  0.00000  0.37645

   Total alpha = 32.00000, Total beta = 32.00000, Total charge =  1.00000

*** Psi4 exiting successfully. Buy a developer a beer!
