                               Psi4 1.1 release

  ==> Input File <==

--------------------------------------------------------------------------
set {
	reference rks
	basis cc-pvdz
}

set_num_threads( 8 )
memory 2 gb

molecule MOL {
0 1

O	 1.014300	 -0.002300	 0.060500
O	 2.462400	 -0.107500	 -0.002400
H	 0.822444	 -0.724540	 -0.567641
H	 2.655500	 0.713700	 0.488700

	symmetry c1
}
set optking { dynamic_level = 1 }
set optking {
	frozen_dihedral = ("
		3 1 2 4
	")
}

ee,wfn = energy('b3lyp-d3', return_wfn=True)
oeprop( wfn, 'DIPOLE', 'QUADRUPOLE', 'MULLIKEN_CHARGES')
f=open( 'psi4out.xyz', 'w' )
f.write( "4  " )
f.write( str(ee) + "\n" )
f.write( MOL.save_string_xyz() )
f.close()
--------------------------------------------------------------------------

    Molecular point group: c1

    Geometry (in Angstrom), charge = 0, multiplicity = 1:

       Center              X                  Y                   Z               Mass
    ------------   -----------------  -----------------  -----------------  -----------------
           O         -0.724086868598     0.049667108971     0.035511502824    15.994914619560
           O          0.724013131402    -0.055532891029    -0.027388497176    15.994914619560
           H         -0.915942868598    -0.672572891029    -0.592629497176     1.007825032070
           H          0.917113131402     0.765667108971     0.463711502824     1.007825032070

  Charge       = 0
  Multiplicity = 1
  Basis Set: CC-PVDZ
    Blend: CC-PVDZ
   => B3LYP Composite Functional <=
  Basis Set: (CC-PVDZ AUX)
    Blend: CC-PVDZ-JKFIT

    Orbital Energies (a.u.)
    -----------------------

    Doubly Occupied:

       1A    -19.185416     2A    -19.185376     3A     -1.109400
       4A     -0.886444     5A     -0.503655     6A     -0.494418
       7A     -0.391129     8A     -0.355852     9A     -0.242580

  @DF-RKS Final Energy:  -151.54973055124998

   => Energetics <=

    Nuclear Repulsion Energy =             36.7832460833822950
    One-Electron Energy =                -281.5722509624433769
    Two-Electron Energy =                 107.7029157956383614
    DFT Exchange-Correlation Energy =     -14.4633219778272224
    Empirical Dispersion Energy =          -0.0003194900000000
    PCM Polarization Energy =               0.0000000000000000
    EFP Energy =                            0.0000000000000000
    Total Energy =                       -151.5497305512499793

  Mulliken Charges: (a.u.)
   Center  Symbol    Alpha    Beta     Spin     Total
       1     O     4.09131  4.09131  0.00000 -0.18263
       2     O     4.09129  4.09129  0.00000 -0.18259
       3     H     0.40869  0.40869  0.00000  0.18263
       4     H     0.40871  0.40871  0.00000  0.18259

   Total alpha =  9.00000, Total beta =  9.00000, Total charge =  0.00000

*** Psi4 exiting successfully. Buy a developer a beer!
