                               Psi4 1.1 release

  ==> Input File <==

--------------------------------------------------------------------------
set {
	reference rks
	basis 6-31G*
}

set_num_threads( 8 )
memory 2 gb

molecule MOL {
1 1

C	 -0.000000	 -0.000000	 -0.191639
C	 -1.132584	 -0.453291	 0.510391
C	 -1.124888	 -0.455298	 1.901670
C	 -0.000000	 0.000000	 2.596333
C	 1.124888	 0.455298	 1.901670
C	 1.132584	 0.453290	 0.510391
C	 -0.000000	 -0.000000	 -1.658508
H	 -1.991885	 -0.847745	 -0.024627
H	 -1.990734	 -0.820813	 2.444112
H	 -0.000000	 0.000000	 3.681982
H	 1.990733	 0.820814	 2.444112
H	 1.991885	 0.847745	 -0.024627
N	 -0.712589	 -0.905950	 -2.322235
N	 0.712590	 0.905950	 -2.322235
H	 0.673432	 1.006470	 -3.329771
H	 1.377190	 1.485970	 -1.827091
H	 -1.377189	 -1.485970	 -1.827091
H	 -0.673431	 -1.006470	 -3.329771

	symmetry c1
}
set optking { dynamic_level = 1 }
set optking {
	frozen_dihedral = ("
		2 1 7 13
	")
}

ee,wfn = optimize('b3lyp-d3', return_wfn=True)
oeprop( wfn, 'DIPOLE', 'QUADRUPOLE', 'MULLIKEN_CHARGES')
f=open( 'psi4out.xyz', 'w' )
f.write( "18  " )
f.write( str(ee) + "\n" )
f.write( MOL.save_string_xyz() )
f.close()
--------------------------------------------------------------------------

    Molecular point group: c1
  Charge       = 1
  Multiplicity = 1
  Basis Set: 6-31G*
    Blend: 6-31G*
   => B3LYP Composite Functional <=
  Basis Set: (6-31G* AUX)
    Blend: CC-PVDZ-JKFIT
  @DF-RKS Final Energy:  -381.46465687197735
    Total Energy =                       -381.4646568719773541
    Molecular point group: c1
  Basis Set: 6-31G*
    Blend: 6-31G*
  Basis Set: (6-31G* AUX)
    Blend: CC-PVDZ-JKFIT
   => B3LYP Composite Functional <=
  Basis Set: 6-31G*
    Blend: 6-31G*
   => B3LYP Composite Functional <=
  Basis Set: (6-31G* AUX)
    Blend: CC-PVDZ-JKFIT
  @DF-RKS Final Energy:  -381.46812402844694
    Total Energy =                       -381.4681240284469936
  Basis Set: 6-31G*
    Blend: 6-31G*
  Basis Set: (6-31G* AUX)
  @DF-RKS Final Energy:  -381.46978769534667
    Total Energy =                       -381.4697876953466107
  @DF-RKS Final Energy:  -381.47025874897827
    Total Energy =                       -381.4702587489782104
  @DF-RKS Final Energy:  -381.47029775949954
    Total Energy =                       -381.4702977594995446
  @DF-RKS Final Energy:  -381.47031484802937
    Total Energy =                       -381.4703148480293748
   => B3LYP Composite Functional <=
  Basis Set: (6-31G* AUX)
    Blend: CC-PVDZ-JKFIT
  @DF-RKS Final Energy:  -381.47031597542622
    Total Energy =                       -381.4703159754262174
  Basis Set: 6-31G*
    Blend: 6-31G*
  Basis Set: (6-31G* AUX)
    Blend: CC-PVDZ-JKFIT
   => B3LYP Composite Functional <=
  Charge       = 1
  Multiplicity = 1
  Basis Set: 6-31G*
    Blend: 6-31G*
   => B3LYP Composite Functional <=
  Basis Set: (6-31G* AUX)
    Blend: CC-PVDZ-JKFIT

    Orbital Energies (a.u.)
    -----------------------

    Doubly Occupied:

       1A    -14.567285     2A    -14.567236     3A    -10.496994
       4A    -10.373935     5A    -10.357123     6A    -10.356934
       7A    -10.343973     8A    -10.341073     9A    -10.341019
      10A     -1.183376    11A     -1.091131    12A     -1.014856
      13A     -0.927114    14A     -0.902969    15A     -0.845716
      16A     -0.785592    17A     -0.774156    18A     -0.740032
      19A     -0.733838    20A     -0.688825    21A     -0.669160
      22A     -0.626796    23A     -0.615889    24A     -0.588954
      25A     -0.579723    26A     -0.573554    27A     -0.518377
      28A     -0.506470    29A     -0.498732    30A     -0.472414
      31A     -0.412279    32A     -0.406373

  @DF-RKS Final Energy:  -381.47031618577529

   => Energetics <=

    Nuclear Repulsion Energy =            416.9103024963561097
    One-Electron Energy =               -1329.0095471416318560
    Two-Electron Energy =                 575.0469252546841972
    DFT Exchange-Correlation Energy =     -44.4061345151836875
    Empirical Dispersion Energy =          -0.0118622800000000
    PCM Polarization Energy =               0.0000000000000000
    EFP Energy =                            0.0000000000000000
    Total Energy =                       -381.4703161857752889
    Molecular point group: c1
  Basis Set: 6-31G*
    Blend: 6-31G*
  Basis Set: (6-31G* AUX)
    Blend: CC-PVDZ-JKFIT
   => B3LYP Composite Functional <=

  -Total Gradient:
     Atom            X                  Y                   Z
    ------   -----------------  -----------------  -----------------
       1       -0.001410861945     0.002481924876    -0.000040851615
       2        0.000558169643    -0.001386040468     0.000023814187
       3       -0.000008518052     0.000000892119    -0.000009167711
       4       -0.000000366870    -0.000006129557    -0.000005117827
       5        0.000011863690    -0.000003823635    -0.000009859982
       6       -0.000000026471     0.000020416063     0.000016521301
       7        0.002117774912    -0.002075488715     0.000038794483
       8        0.000003755981     0.000003934198    -0.000005386566
       9        0.000004597319    -0.000001822779     0.000004381812
      10       -0.000001359346     0.000002936052     0.000000313148
      11       -0.000004302603    -0.000000217263     0.000003514948
      12       -0.000005611900     0.000001072265    -0.000010690808
      13       -0.001251695242     0.000971721553    -0.000012330407
      14       -0.000019374248    -0.000009776462    -0.000005406553
      15        0.000002485436    -0.000006957138    -0.000007719446
      16        0.000008609408     0.000016488909     0.000006478155
      17       -0.000005177790    -0.000017750658     0.000000873245
      18       -0.000002364660     0.000007352223    -0.000011042611

  **** Optimization is complete! (in 8 steps) ****
    Final optimized geometry and variables:
    Molecular point group: c1

    Geometry (in Angstrom), charge = 1, multiplicity = 1:

    C           -0.005538618436     0.014035687560    -0.191893485392
    C           -1.131768631082    -0.452619863346     0.512863544567
    C           -1.119140632476    -0.467354751142     1.903589621133
    C            0.013195541155    -0.031148791192     2.598496603910
    C            1.137898695293     0.423297299607     1.903266278304
    C            1.134173302271     0.447405293205     0.512484126158
    C           -0.003547346946     0.015039023527    -1.658152407562
    H           -2.033223667031    -0.746878900925    -0.017071157667
    H           -1.994732327482    -0.808909336391     2.445966180294
    H            0.019601975285    -0.047014427257     3.684014366084
    H            2.021321238407     0.745616676702     2.444707931193
    H            2.030819748956     0.752450696367    -0.019547215222
    N           -0.703053668011    -0.897402455382    -2.328612397480
    N            0.680786513135     0.942503043989    -2.323452512209
    H            0.781551226101     0.931682290626    -3.331500340070
    H            1.060594289411     1.741512736072    -1.833331894377
    H           -1.074769693851    -1.705360826868    -1.847031127688
    H           -0.802688203454    -0.878373046261    -3.336681884502

  Mulliken Charges: (a.u.)
   Center  Symbol    Alpha    Beta     Spin     Total
       1     C     2.95191  2.95191  0.00000  0.09618
       2     C     3.08373  3.08373  0.00000 -0.16745
       3     C     3.06247  3.06247  0.00000 -0.12494
       4     C     3.05134  3.05134  0.00000 -0.10268
       5     C     3.06216  3.06216  0.00000 -0.12431
       6     C     3.08329  3.08329  0.00000 -0.16659
       7     C     2.71800  2.71800  0.00000  0.56400
       8     H     0.41465  0.41465  0.00000  0.17070
       9     H     0.40529  0.40529  0.00000  0.18942
      10     H     0.40358  0.40358  0.00000  0.19284
      11     H     0.40529  0.40529  0.00000  0.18943
      12     H     0.41486  0.41486  0.00000  0.17027
      13     N     3.86617  3.86617  0.00000 -0.73234
      14     N     3.86541  3.86541  0.00000 -0.73083
      15     H     0.30577  0.30577  0.00000  0.38845
      16     H     0.30002  0.30002  0.00000  0.39997
      17     H     0.30029  0.30029  0.00000  0.39942
      18     H     0.30577  0.30577  0.00000  0.38846

   Total alpha = 32.00000, Total beta = 32.00000, Total charge =  1.00000

*** Psi4 exiting successfully. Buy a developer a beer!
