                               Psi4 1.1 release

  ==> Input File <==

--------------------------------------------------------------------------
set_num_threads( 8 )
memory 2.000000 gb

set { reference rks }
set { basis cc-pVDZ }

molecule MOL {
    0 1
    noreorient
    nocom
    symmetry c1
    O    1.050400   0.042900  -0.048100
    C    2.474100   0.047400  -0.029000
    C    3.002600  -1.068900  -0.932000
    N    4.462700  -1.072400  -1.006800
    H    0.760400   0.728400   0.578000
    H    2.809900  -0.097900   1.003200
    H    2.817400   1.026800  -0.378600
    H    2.581000  -0.963300  -1.938400
    H    2.653800  -2.036400  -0.553400
    H    4.791918  -0.131771  -1.222008
    H    4.749478  -1.654957  -1.793334
}

set optking { frozen_dihedral = (" 2 3 4 10 ") }

energy, wfn = energy('B3LYP-D3', return_wfn=True)

import os
os.chdir(os.environ['HTMD_PSI4_WORKDIR'])

oeprop(wfn, 'DIPOLE', 'QUADRUPOLE', 'MULLIKEN_CHARGES')

with open('psi4out.xyz', 'w') as f:
    f.write('11 ' )
    f.write('%.12f\n' % energy)
    f.write(MOL.save_string_xyz())
--------------------------------------------------------------------------

    Molecular point group: c1

    Geometry (in Angstrom), charge = 0, multiplicity = 1:

       Center              X                  Y                   Z               Mass
    ------------   -----------------  -----------------  -----------------  -----------------
           O          1.050400000000     0.042900000000    -0.048100000000    15.994914619560
           C          2.474100000000     0.047400000000    -0.029000000000    12.000000000000
           C          3.002600000000    -1.068900000000    -0.932000000000    12.000000000000
           N          4.462700000000    -1.072400000000    -1.006800000000    14.003074004780
           H          0.760400000000     0.728400000000     0.578000000000     1.007825032070
           H          2.809900000000    -0.097900000000     1.003200000000     1.007825032070
           H          2.817400000000     1.026800000000    -0.378600000000     1.007825032070
           H          2.581000000000    -0.963300000000    -1.938400000000     1.007825032070
           H          2.653800000000    -2.036400000000    -0.553400000000     1.007825032070
           H          4.791918000000    -0.131771000000    -1.222008000000     1.007825032070
           H          4.749478000000    -1.654957000000    -1.793334000000     1.007825032070

  Charge       = 0
  Multiplicity = 1
  Basis Set: CC-PVDZ
    Blend: CC-PVDZ
   => B3LYP Composite Functional <=
  Basis Set: (CC-PVDZ AUX)
    Blend: CC-PVDZ-JKFIT

    Orbital Energies (a.u.)
    -----------------------

    Doubly Occupied:

       1A    -19.128796     2A    -14.304006     3A    -10.226692
       4A    -10.201561     5A     -1.011153     6A     -0.876646
       7A     -0.712694     8A     -0.599423     9A     -0.507710
      10A     -0.480378    11A     -0.461811    12A     -0.414095
      13A     -0.384014    14A     -0.370401    15A     -0.323923
      16A     -0.262530    17A     -0.229567

  @DF-RKS Final Energy:  -210.39039648259271

   => Energetics <=

    Nuclear Repulsion Energy =            130.5070549743072661
    One-Electron Energy =                -543.9219208087721427
    Two-Electron Energy =                 226.5161115613302911
    DFT Exchange-Correlation Energy =     -23.4867114894581022
    Empirical Dispersion Energy =          -0.0049307200000000
    PCM Polarization Energy =               0.0000000000000000
    EFP Energy =                            0.0000000000000000
    Total Energy =                       -210.3903964825926778

  Mulliken Charges: (a.u.)
   Center  Symbol    Alpha    Beta     Spin     Total
       1     O     4.13856  4.13856  0.00000 -0.27712
       2     C     2.93426  2.93426  0.00000  0.13149
       3     C     2.98036  2.98036  0.00000  0.03929
       4     N     3.59419  3.59419  0.00000 -0.18839
       5     H     0.42978  0.42978  0.00000  0.14044
       6     H     0.49719  0.49719  0.00000  0.00563
       7     H     0.50422  0.50422  0.00000 -0.00843
       8     H     0.50077  0.50077  0.00000 -0.00154
       9     H     0.48989  0.48989  0.00000  0.02022
      10     H     0.46735  0.46735  0.00000  0.06530
      11     H     0.46344  0.46344  0.00000  0.07312

   Total alpha = 17.00000, Total beta = 17.00000, Total charge = -0.00000

*** Psi4 exiting successfully. Buy a developer a beer!
