                               Psi4 1.1 release

  ==> Input File <==

--------------------------------------------------------------------------
set {
	reference rks
	basis 6-31G*
}

set_num_threads( 8 )
memory 2 gb

molecule MOL {
1 1

C	 0.797610	 0.986671	 -2.394717
C	 2.045533	 1.398019	 -1.890193
C	 2.799610	 2.330678	 -2.595343
C	 2.313569	 2.861965	 -3.793977
C	 1.072082	 2.458739	 -4.295320
C	 0.313144	 1.519745	 -3.603928
C	 -0.000000	 -0.000000	 -1.658508
H	 2.446133	 0.956392	 -0.982051
H	 3.769649	 2.635655	 -2.216466
H	 2.903890	 3.592213	 -4.338855
H	 0.691948	 2.883497	 -5.218691
H	 -0.669288	 1.241627	 -3.975027
N	 -0.712589	 -0.905950	 -2.322235
N	 -0.009214	 0.013056	 -0.328543
H	 -0.467693	 -0.700733	 0.225596
H	 0.396442	 0.793757	 0.170689
H	 -1.377189	 -1.485970	 -1.827091
H	 -0.673431	 -1.006470	 -3.329771

	symmetry c1
}
set optking { dynamic_level = 1 }
set optking {
	frozen_dihedral = ("
		1 7 13 17
	")
}

ee,wfn = optimize('b3lyp-d3', return_wfn=True)
oeprop( wfn, 'DIPOLE', 'QUADRUPOLE', 'MULLIKEN_CHARGES')
f=open( 'psi4out.xyz', 'w' )
f.write( "18  " )
f.write( str(ee) + "\n" )
f.write( MOL.save_string_xyz() )
f.close()
--------------------------------------------------------------------------

    Molecular point group: c1
  Charge       = 1
  Multiplicity = 1
  Basis Set: 6-31G*
    Blend: 6-31G*
   => B3LYP Composite Functional <=
  Basis Set: (6-31G* AUX)
    Blend: CC-PVDZ-JKFIT
  @DF-RKS Final Energy:  -381.46998378273531
    Total Energy =                       -381.4699837827352553
    Molecular point group: c1
  Basis Set: 6-31G*
    Blend: 6-31G*
  Basis Set: (6-31G* AUX)
    Blend: CC-PVDZ-JKFIT
   => B3LYP Composite Functional <=
  Basis Set: 6-31G*
    Blend: 6-31G*
   => B3LYP Composite Functional <=
  Basis Set: (6-31G* AUX)
    Blend: CC-PVDZ-JKFIT
  @DF-RKS Final Energy:  -381.47042010908126
    Total Energy =                       -381.4704201090813172
  Basis Set: 6-31G*
    Blend: 6-31G*
  Basis Set: (6-31G* AUX)
  @DF-RKS Final Energy:  -381.47042010907779
    Total Energy =                       -381.4704201090777360
  @DF-RKS Final Energy:  -381.47044656195715
    Total Energy =                       -381.4704465619572034
   => B3LYP Composite Functional <=
  Basis Set: (6-31G* AUX)
    Blend: CC-PVDZ-JKFIT
  @DF-RKS Final Energy:  -381.47045861564698
    Total Energy =                       -381.4704586156469759
  Basis Set: 6-31G*
    Blend: 6-31G*
  Basis Set: (6-31G* AUX)
    Blend: CC-PVDZ-JKFIT
   => B3LYP Composite Functional <=
  Charge       = 1
  Multiplicity = 1
  Basis Set: 6-31G*
    Blend: 6-31G*
   => B3LYP Composite Functional <=
  Basis Set: (6-31G* AUX)
    Blend: CC-PVDZ-JKFIT

    Orbital Energies (a.u.)
    -----------------------

    Doubly Occupied:

       1A    -14.567856     2A    -14.567720     3A    -10.496970
       4A    -10.373186     5A    -10.356347     6A    -10.356187
       7A    -10.343180     8A    -10.340538     9A    -10.340474
      10A     -1.183602    11A     -1.091669    12A     -1.014334
      13A     -0.926599    14A     -0.902301    15A     -0.845318
      16A     -0.785633    17A     -0.773173    18A     -0.741834
      19A     -0.732858    20A     -0.688872    21A     -0.669229
      22A     -0.625606    23A     -0.617177    24A     -0.586456
      25A     -0.579212    26A     -0.572736    27A     -0.518520
      28A     -0.505547    29A     -0.498161    30A     -0.472597
      31A     -0.411911    32A     -0.405816

  @DF-RKS Final Energy:  -381.47045935545856

   => Energetics <=

    Nuclear Repulsion Energy =            416.9133229983943920
    One-Electron Energy =               -1329.0364221396869198
    Two-Electron Energy =                 575.0705276624807993
    DFT Exchange-Correlation Energy =     -44.4059514666467763
    Empirical Dispersion Energy =          -0.0119364100000000
    PCM Polarization Energy =               0.0000000000000000
    EFP Energy =                            0.0000000000000000
    Total Energy =                       -381.4704593554585017
    Molecular point group: c1
  Basis Set: 6-31G*
    Blend: 6-31G*
  Basis Set: (6-31G* AUX)
    Blend: CC-PVDZ-JKFIT
   => B3LYP Composite Functional <=

  -Total Gradient:
     Atom            X                  Y                   Z
    ------   -----------------  -----------------  -----------------
       1       -0.000482630185     0.000426054562    -0.000022247252
       2       -0.000014327128    -0.000006181660     0.000002514756
       3        0.000004305338     0.000006555645    -0.000021203593
       4        0.000004746040     0.000010148971     0.000011636477
       5        0.000000636413     0.000008350826    -0.000001646683
       6       -0.000000456692    -0.000010440278     0.000024440527
       7        0.000440107324    -0.000403619284    -0.000068356275
       8        0.000006700490    -0.000002159473    -0.000005619917
       9        0.000002052605    -0.000002535708     0.000000054729
      10        0.000002649121    -0.000004643624     0.000000054578
      11        0.000000655036    -0.000004683254     0.000000145595
      12       -0.000001650746    -0.000004625417    -0.000007700958
      13        0.000695556160    -0.000712173385     0.000310313800
      14       -0.000024765753     0.000022102976    -0.000029270280
      15       -0.000007633863    -0.000002920764    -0.000001004836
      16        0.000015242788    -0.000017792321    -0.000007345798
      17       -0.000662379259     0.000647963921    -0.000186234864
      18        0.000011103802     0.000035294001     0.000012906390

  **** Optimization is complete! (in 4 steps) ****
    Final optimized geometry and variables:
    Molecular point group: c1

    Geometry (in Angstrom), charge = 1, multiplicity = 1:

    C           -0.102889708047    -0.130046191865     0.095954840940
    C            1.148447585936     0.276346408165     0.596247908925
    C            1.902980066827     1.207509069120    -0.110258662229
    C            1.414185767774     1.741931119959    -1.306439195065
    C            0.169653989527     1.343318938840    -1.803922923151
    C           -0.589799467282     0.405833488536    -1.111048432999
    C           -0.902327135194    -1.113105206474     0.834582577465
    H            1.550706089850    -0.168053463399     1.502317504342
    H            2.875499557605     1.508734038524     0.265263969093
    H            2.004943423177     2.470883506600    -1.852595804207
    H           -0.212276879284     1.770380367833    -2.725490380440
    H           -1.574250399367     0.131126589386    -1.479306134186
    N           -1.621518310520    -2.016559021048     0.174586505173
    N           -0.910360262625    -1.097698585347     2.164572972115
    H           -1.366536060008    -1.812157510853     2.719818246839
    H           -0.499218540863    -0.319112579597     2.662603619341
    H           -2.300068042307    -2.617865986237     0.627044884640
    H           -1.499740414294    -2.127104903244    -0.823485106760

  Mulliken Charges: (a.u.)
   Center  Symbol    Alpha    Beta     Spin     Total
       1     C     2.95696  2.95696  0.00000  0.08609
       2     C     3.08197  3.08197  0.00000 -0.16394
       3     C     3.06248  3.06248  0.00000 -0.12495
       4     C     3.05142  3.05142  0.00000 -0.10285
       5     C     3.06249  3.06249  0.00000 -0.12498
       6     C     3.08186  3.08186  0.00000 -0.16372
       7     C     2.72221  2.72221  0.00000  0.55558
       8     H     0.41408  0.41408  0.00000  0.17184
       9     H     0.40539  0.40539  0.00000  0.18921
      10     H     0.40383  0.40383  0.00000  0.19234
      11     H     0.40542  0.40542  0.00000  0.18915
      12     H     0.41453  0.41453  0.00000  0.17094
      13     N     3.86358  3.86358  0.00000 -0.72715
      14     N     3.86311  3.86311  0.00000 -0.72623
      15     H     0.30562  0.30562  0.00000  0.38876
      16     H     0.29973  0.29973  0.00000  0.40054
      17     H     0.30560  0.30560  0.00000  0.38880
      18     H     0.29971  0.29971  0.00000  0.40057

   Total alpha = 32.00000, Total beta = 32.00000, Total charge =  1.00000

*** Psi4 exiting successfully. Buy a developer a beer!
