                               Psi4 1.1 release

  ==> Input File <==

--------------------------------------------------------------------------
set_num_threads(1)
set_memory(4203741184)

set { reference rks }
set { basis cc-pVDZ }

molecule MOL {
    0 1
    noreorient
    nocom
    symmetry c1
    O    1.141000   0.017000   0.083000
    C    2.558000   0.086000  -0.005000
    C    3.192000  -0.789000   1.067000
    O    4.610000  -0.719000   0.979000
    H    0.789000   0.590000  -0.620000
    H    2.874000   1.128000   0.115000
    H    2.871000  -0.243000  -1.001000
    H    2.876000  -1.830000   0.947000
    H    2.879000  -0.459000   2.064000
    H    4.875395   0.108278   1.417250
}

set optking { frozen_dihedral = (" 2 3 4 10 ") }

energy, wfn = energy('B3LYP-D3', return_wfn=True)

import os
os.chdir(os.environ['HTMD_PSI4_WORKDIR'])

oeprop(wfn, 'DIPOLE', 'QUADRUPOLE', 'MULLIKEN_CHARGES')

with open('psi4out.xyz', 'w') as f:
    f.write('10 ' )
    f.write('%.12f\n' % energy)
    f.write(MOL.save_string_xyz())
--------------------------------------------------------------------------

    Molecular point group: c1

    Geometry (in Angstrom), charge = 0, multiplicity = 1:

       Center              X                  Y                   Z               Mass
    ------------   -----------------  -----------------  -----------------  -----------------
           O          1.141000000000     0.017000000000     0.083000000000    15.994914619560
           C          2.558000000000     0.086000000000    -0.005000000000    12.000000000000
           C          3.192000000000    -0.789000000000     1.067000000000    12.000000000000
           O          4.610000000000    -0.719000000000     0.979000000000    15.994914619560
           H          0.789000000000     0.590000000000    -0.620000000000     1.007825032070
           H          2.874000000000     1.128000000000     0.115000000000     1.007825032070
           H          2.871000000000    -0.243000000000    -1.001000000000     1.007825032070
           H          2.876000000000    -1.830000000000     0.947000000000     1.007825032070
           H          2.879000000000    -0.459000000000     2.064000000000     1.007825032070
           H          4.875395000000     0.108278000000     1.417250000000     1.007825032070

  Charge       = 0
  Multiplicity = 1
  Basis Set: CC-PVDZ
    Blend: CC-PVDZ
   => B3LYP Composite Functional <=
  Basis Set: (CC-PVDZ AUX)
    Blend: CC-PVDZ-JKFIT

    Orbital Energies (a.u.)
    -----------------------

    Doubly Occupied:

       1A    -19.135201     2A    -19.132205     3A    -10.227312
       4A    -10.225848     5A     -1.021284     6A     -1.010097
       7A     -0.731068     8A     -0.613479     9A     -0.521456
      10A     -0.495182    11A     -0.451879    12A     -0.429547
      13A     -0.397594    14A     -0.340093    15A     -0.325735
      16A     -0.270057    17A     -0.265576

  @DF-RKS Final Energy:  -230.25858036929537

   => Energetics <=

    Nuclear Repulsion Energy =            129.7740091284912012
    One-Electron Energy =                -571.2452002060510949
    Two-Electron Energy =                 235.7555488590093944
    DFT Exchange-Correlation Energy =     -24.5383241507448950
    Empirical Dispersion Energy =          -0.0046140000000000
    PCM Polarization Energy =               0.0000000000000000
    EFP Energy =                            0.0000000000000000
    Total Energy =                       -230.2585803692953732

  Mulliken Charges: (a.u.)
   Center  Symbol    Alpha    Beta     Spin     Total
       1     O     4.14039  4.14039  0.00000 -0.28079
       2     C     2.94070  2.94070  0.00000  0.11860
       3     C     2.93180  2.93180  0.00000  0.13641
       4     O     4.13946  4.13946  0.00000 -0.27892
       5     H     0.42820  0.42820  0.00000  0.14360
       6     H     0.50803  0.50803  0.00000 -0.01606
       7     H     0.49809  0.49809  0.00000  0.00383
       8     H     0.48638  0.48638  0.00000  0.02725
       9     H     0.49701  0.49701  0.00000  0.00598
      10     H     0.42994  0.42994  0.00000  0.14011

   Total alpha = 17.00000, Total beta = 17.00000, Total charge = -0.00000

*** Psi4 exiting successfully. Buy a developer a beer!
