                               Psi4 1.1 release

  ==> Input File <==

--------------------------------------------------------------------------
set {
	reference rks
	basis 6-31G*
}

set_num_threads( 8 )
memory 2 gb

molecule MOL {
1 1

C	 -0.000000	 -0.000000	 -0.191639
C	 0.643075	 -1.036664	 0.510391
C	 0.643715	 -1.028737	 1.901670
C	 -0.000000	 0.000000	 2.596333
C	 -0.643716	 1.028737	 1.901670
C	 -0.643075	 1.036665	 0.510391
C	 -0.000000	 -0.000000	 -1.658508
H	 1.180753	 -1.814415	 -0.024627
H	 1.154030	 -1.817957	 2.444112
H	 -0.000000	 0.000000	 3.681982
H	 -1.154031	 1.817957	 2.444112
H	 -1.180753	 1.814415	 -0.024627
N	 -0.712589	 -0.905950	 -2.322235
N	 0.712590	 0.905950	 -2.322235
H	 0.673432	 1.006470	 -3.329771
H	 1.377190	 1.485970	 -1.827091
H	 -1.377189	 -1.485970	 -1.827091
H	 -0.673431	 -1.006470	 -3.329771

	symmetry c1
}
set optking { dynamic_level = 1 }
set optking {
	frozen_dihedral = ("
		2 1 7 13
	")
}

ee,wfn = optimize('b3lyp-d3', return_wfn=True)
oeprop( wfn, 'DIPOLE', 'QUADRUPOLE', 'MULLIKEN_CHARGES')
f=open( 'psi4out.xyz', 'w' )
f.write( "18  " )
f.write( str(ee) + "\n" )
f.write( MOL.save_string_xyz() )
f.close()
--------------------------------------------------------------------------

    Molecular point group: c1
  Charge       = 1
  Multiplicity = 1
  Basis Set: 6-31G*
    Blend: 6-31G*
   => B3LYP Composite Functional <=
  Basis Set: (6-31G* AUX)
    Blend: CC-PVDZ-JKFIT
  @DF-RKS Final Energy:  -381.46489281480882
    Total Energy =                       -381.4648928148088203
    Molecular point group: c1
  Basis Set: 6-31G*
    Blend: 6-31G*
  Basis Set: (6-31G* AUX)
    Blend: CC-PVDZ-JKFIT
   => B3LYP Composite Functional <=
  Basis Set: 6-31G*
    Blend: 6-31G*
   => B3LYP Composite Functional <=
  Basis Set: (6-31G* AUX)
    Blend: CC-PVDZ-JKFIT
  @DF-RKS Final Energy:  -381.46602997961344
    Total Energy =                       -381.4660299796134950
  Basis Set: 6-31G*
    Blend: 6-31G*
  Basis Set: (6-31G* AUX)
  @DF-RKS Final Energy:  -381.46624246418673
    Total Energy =                       -381.4662424641867915
  @DF-RKS Final Energy:  -381.46626266591483
    Total Energy =                       -381.4662626659147691
   => B3LYP Composite Functional <=
  Basis Set: (6-31G* AUX)
    Blend: CC-PVDZ-JKFIT
  @DF-RKS Final Energy:  -381.46626588293958
    Total Energy =                       -381.4662658829395809
  Basis Set: 6-31G*
    Blend: 6-31G*
  Basis Set: (6-31G* AUX)
    Blend: CC-PVDZ-JKFIT
   => B3LYP Composite Functional <=
  Charge       = 1
  Multiplicity = 1
  Basis Set: 6-31G*
    Blend: 6-31G*
   => B3LYP Composite Functional <=
  Basis Set: (6-31G* AUX)
    Blend: CC-PVDZ-JKFIT

    Orbital Energies (a.u.)
    -----------------------

    Doubly Occupied:

       1A    -14.574160     2A    -14.574025     3A    -10.501168
       4A    -10.369175     5A    -10.350791     6A    -10.350394
       7A    -10.335811     8A    -10.335289     9A    -10.334993
      10A     -1.188680    11A     -1.097754    12A     -1.010144
      13A     -0.923102    14A     -0.896781    15A     -0.845170
      16A     -0.787403    17A     -0.767573    18A     -0.751815
      19A     -0.728926    20A     -0.690630    21A     -0.667549
      22A     -0.622553    23A     -0.617893    24A     -0.579035
      25A     -0.574480    26A     -0.568570    27A     -0.516471
      28A     -0.498684    29A     -0.493122    30A     -0.478039
      31A     -0.406475    32A     -0.400126

  @DF-RKS Final Energy:  -381.46626616458610

   => Energetics <=

    Nuclear Repulsion Energy =            416.4913983062008356
    One-Electron Energy =               -1328.2952034934326093
    Two-Electron Energy =                 574.7537324835723211
    DFT Exchange-Correlation Energy =     -44.4043975009266063
    Empirical Dispersion Energy =          -0.0117959600000000
    PCM Polarization Energy =               0.0000000000000000
    EFP Energy =                            0.0000000000000000
    Total Energy =                       -381.4662661645860453
    Molecular point group: c1
  Basis Set: 6-31G*
    Blend: 6-31G*
  Basis Set: (6-31G* AUX)
    Blend: CC-PVDZ-JKFIT
   => B3LYP Composite Functional <=

  -Total Gradient:
     Atom            X                  Y                   Z
    ------   -----------------  -----------------  -----------------
       1       -0.007353657001    -0.002332216988    -0.000191587789
       2        0.003842066192     0.002461356322     0.000123109021
       3        0.000009983764     0.000009781666     0.000005531287
       4        0.000008918604     0.000000015567    -0.000006742374
       5        0.000000615192     0.000001553459     0.000000899185
       6       -0.000011737742    -0.000005442271     0.000003568006
       7        0.007362536143    -0.003121398641     0.000115321260
       8        0.000008247001     0.000001206576    -0.000001468556
       9       -0.000000857124     0.000001368724     0.000001744495
      10       -0.000002669074    -0.000001171179     0.000002372050
      11        0.000002034859     0.000001447521     0.000004825097
      12       -0.000004648022     0.000003441366    -0.000005661796
      13       -0.003843180436     0.002957985535    -0.000053376943
      14       -0.000038608086     0.000005063080    -0.000013070543
      15        0.000007310807    -0.000011148145     0.000006513566
      16        0.000010299144     0.000008330146     0.000012734947
      17        0.000002465898     0.000006205089    -0.000001693097
      18       -0.000005226171     0.000002018417     0.000000069290

  **** Optimization is complete! (in 6 steps) ****
    Final optimized geometry and variables:
    Molecular point group: c1

    Geometry (in Angstrom), charge = 1, multiplicity = 1:

    C           -0.037088984502    -0.032197881728    -0.186746686186
    C            0.600840950816    -1.069612816503     0.510720217151
    C            0.624987647003    -1.037550701444     1.903833539688
    C            0.021813014853     0.019659097779     2.590326399953
    C           -0.598033617262     1.058636880577     1.889753891083
    C           -0.614471293821     1.049746837311     0.496675924650
    C            0.003988711700    -0.017658575434    -1.664448657497
    H            1.077914890164    -1.883172565888    -0.028596490020
    H            1.119779533382    -1.833380191895     2.451205537468
    H            0.039207077313     0.037162131520     3.675678507901
    H           -1.064880122048     1.877753190142     2.427299858057
    H           -1.093149865655     1.855011939518    -0.053426990716
    N           -0.680651480011    -0.928235641112    -2.341539713999
    N            0.671945824053     0.946494407435    -2.281227049916
    H            0.681551007025     1.064032997100    -3.288876903587
    H            1.223761861498     1.593595902628    -1.731870217577
    H           -1.234339639603    -1.607179622257    -1.834045345010
    H           -0.653132717573    -1.012491402399    -3.352223103512

  Mulliken Charges: (a.u.)
   Center  Symbol    Alpha    Beta     Spin     Total
       1     C     2.98579  2.98579  0.00000  0.02843
       2     C     3.07272  3.07272  0.00000 -0.14544
       3     C     3.06194  3.06194  0.00000 -0.12387
       4     C     3.05310  3.05310  0.00000 -0.10620
       5     C     3.06321  3.06321  0.00000 -0.12642
       6     C     3.07427  3.07427  0.00000 -0.14854
       7     C     2.74219  2.74219  0.00000  0.51562
       8     H     0.41336  0.41336  0.00000  0.17328
       9     H     0.40683  0.40683  0.00000  0.18634
      10     H     0.40598  0.40598  0.00000  0.18803
      11     H     0.40680  0.40680  0.00000  0.18639
      12     H     0.41343  0.41343  0.00000  0.17314
      13     N     3.84805  3.84805  0.00000 -0.69610
      14     N     3.84899  3.84899  0.00000 -0.69798
      15     H     0.30518  0.30518  0.00000  0.38964
      16     H     0.29659  0.29659  0.00000  0.40682
      17     H     0.29621  0.29621  0.00000  0.40759
      18     H     0.30536  0.30536  0.00000  0.38927

   Total alpha = 32.00000, Total beta = 32.00000, Total charge =  1.00000

*** Psi4 exiting successfully. Buy a developer a beer!
