                               Psi4 1.1 release

  ==> Input File <==

--------------------------------------------------------------------------
set_num_threads(1)
set_memory(3145728000)

set { reference rks }
set { basis 6-31G* }

molecule MOL {
    1 1
    noreorient
    nocom
    symmetry c1
    C    0.000000   0.000000  -0.177864
    C    0.036678   1.219374   0.524165
    C    0.031764   1.213119   1.915444
    C   -0.000000  -0.000000   2.610107
    C   -0.031764  -1.213119   1.915444
    C   -0.036677  -1.219374   0.524165
    C    0.000000  -0.000000  -1.644734
    H    0.018170   2.164705  -0.010853
    H    0.042402   2.152895   2.457886
    H   -0.000000  -0.000000   3.695756
    H   -0.042402  -2.152895   2.457886
    H   -0.018170  -2.164705  -0.010853
    N    1.094470   0.361476  -2.308461
    N   -1.094470  -0.361477  -2.308460
    H   -1.117362  -0.466897  -3.315997
    H   -1.968877  -0.477788  -1.813316
    H    1.968877   0.477788  -1.813317
    H    1.117362   0.466896  -3.315997
}

set optking { frozen_dihedral = (" 2 1 7 13 ") }

set optking { dynamic_level = 1
 geom_maxiter = 250
 print_trajectory_xyz_file = True }

energy, wfn = optimize('B3LYP-D3', return_wfn=True)

import os
os.chdir(os.environ['HTMD_PSI4_WORKDIR'])

oeprop(wfn, 'DIPOLE', 'QUADRUPOLE', 'MULLIKEN_CHARGES')

with open('psi4out.xyz', 'w') as f:
    f.write('18 ' )
    f.write('%.12f\n' % energy)
    f.write(MOL.save_string_xyz())
--------------------------------------------------------------------------

    Molecular point group: c1
  Charge       = 1
  Multiplicity = 1
  Basis Set: 6-31G*
    Blend: 6-31G*
   => B3LYP Composite Functional <=
  Basis Set: (6-31G* AUX)
    Blend: CC-PVDZ-JKFIT
  @DF-RKS Final Energy:  -381.46489284997443
    Total Energy =                       -381.4648928499744898
    Molecular point group: c1
  Basis Set: 6-31G*
    Blend: 6-31G*
  Basis Set: (6-31G* AUX)
    Blend: CC-PVDZ-JKFIT
   => B3LYP Composite Functional <=
  Basis Set: 6-31G*
    Blend: 6-31G*
   => B3LYP Composite Functional <=
  Basis Set: (6-31G* AUX)
    Blend: CC-PVDZ-JKFIT
  @DF-RKS Final Energy:  -381.46602997826329
    Total Energy =                       -381.4660299782632933
  Basis Set: 6-31G*
    Blend: 6-31G*
  Basis Set: (6-31G* AUX)
  @DF-RKS Final Energy:  -381.46624246108615
    Total Energy =                       -381.4662424610861535
  @DF-RKS Final Energy:  -381.46626266265235
    Total Energy =                       -381.4662626626524116
   => B3LYP Composite Functional <=
  Basis Set: (6-31G* AUX)
    Blend: CC-PVDZ-JKFIT
  @DF-RKS Final Energy:  -381.46626587981518
    Total Energy =                       -381.4662658798151824
  Basis Set: 6-31G*
    Blend: 6-31G*
  Basis Set: (6-31G* AUX)
    Blend: CC-PVDZ-JKFIT
   => B3LYP Composite Functional <=
  Charge       = 1
  Multiplicity = 1
  Basis Set: 6-31G*
    Blend: 6-31G*
   => B3LYP Composite Functional <=
  Basis Set: (6-31G* AUX)
    Blend: CC-PVDZ-JKFIT

    Orbital Energies (a.u.)
    -----------------------

    Doubly Occupied:

       1A    -14.574160     2A    -14.574025     3A    -10.501168
       4A    -10.369175     5A    -10.350791     6A    -10.350394
       7A    -10.335811     8A    -10.335289     9A    -10.334993
      10A     -1.188680    11A     -1.097754    12A     -1.010144
      13A     -0.923102    14A     -0.896780    15A     -0.845170
      16A     -0.787403    17A     -0.767573    18A     -0.751815
      19A     -0.728926    20A     -0.690630    21A     -0.667549
      22A     -0.622553    23A     -0.617893    24A     -0.579035
      25A     -0.574480    26A     -0.568570    27A     -0.516471
      28A     -0.498684    29A     -0.493122    30A     -0.478039
      31A     -0.406474    32A     -0.400126

  @DF-RKS Final Energy:  -381.46626616109620

   => Energetics <=

    Nuclear Repulsion Energy =            416.4913715017778486
    One-Electron Energy =               -1328.2951510723066804
    Two-Electron Energy =                 574.7537063130451997
    DFT Exchange-Correlation Energy =     -44.4043969436125963
    Empirical Dispersion Energy =          -0.0117959600000000
    PCM Polarization Energy =               0.0000000000000000
    EFP Energy =                            0.0000000000000000
    Total Energy =                       -381.4662661610962004
    Molecular point group: c1
  Basis Set: 6-31G*
    Blend: 6-31G*
  Basis Set: (6-31G* AUX)
    Blend: CC-PVDZ-JKFIT
   => B3LYP Composite Functional <=

  -Total Gradient:
     Atom            X                  Y                   Z
    ------   -----------------  -----------------  -----------------
       1        0.007418040929    -0.002118897249    -0.000191610502
       2       -0.004562316436     0.000070995788     0.000123052321
       3       -0.000013717945    -0.000002592915     0.000005594787
       4       -0.000007449198     0.000004818957    -0.000006720367
       5       -0.000001382482    -0.000001019408     0.000000851701
       6        0.000012780286    -0.000001951332     0.000003615874
       7       -0.004412561299     0.006669475133     0.000115340687
       8       -0.000007533934     0.000003674840    -0.000001534289
       9       -0.000000039382    -0.000001507331     0.000001815682
      10        0.000002871783    -0.000000496574     0.000002472252
      11       -0.000002489215    -0.000000067736     0.000004823093
      12        0.000001975985    -0.000005463512    -0.000005661382
      13        0.001569345356    -0.004588787675    -0.000053405720
      14        0.000029340889    -0.000025573269    -0.000013098841
      15        0.000000056126     0.000013318946     0.000006434453
      16       -0.000013257740    -0.000001274982     0.000012779216
      17       -0.000005411829    -0.000003788611    -0.000001652132
      18        0.000003248219    -0.000004564156    -0.000000009786

  **** Optimization is complete! (in 6 steps) ****
    Final optimized geometry and variables:
    Molecular point group: c1

    Geometry (in Angstrom), charge = 1, multiplicity = 1:

    C            0.055346973594     0.007317661708    -0.175718512886
    C            0.096728902755     1.224475155801     0.521748316411
    C            0.058889136603     1.211090087521     1.914861769146
    C           -0.022398330964    -0.003366438141     2.601354814367
    C           -0.079716998649    -1.211836373438     1.900782353495
    C           -0.061104473660    -1.213507349955     0.507704322048
    C            0.013074383276     0.017892083803    -1.653420540979
    H            0.148521333557     2.166173927361    -0.017568544373
    H            0.086118038499     2.147798358240     2.462233764057
    H           -0.046566303594    -0.008346485309     3.686707030926
    H           -0.143104082448    -2.152516506297     2.438328461736
    H           -0.106977126379    -2.149178782418    -0.042398455574
    N            1.086803708522     0.398664978080    -2.330511816237
    N           -1.076347266754    -0.416755525241    -2.270198756431
    H           -1.149288446056    -0.509422720922    -3.277848638906
    H           -1.893803697333    -0.651289501478    -1.720841743101
    H            1.923412316318     0.658706842660    -1.823017550572
    H            1.110412932713     0.484098588024    -3.341195273126

  Mulliken Charges: (a.u.)
   Center  Symbol    Alpha    Beta     Spin     Total
       1     C     2.98579  2.98579  0.00000  0.02843
       2     C     3.07272  3.07272  0.00000 -0.14544
       3     C     3.06194  3.06194  0.00000 -0.12387
       4     C     3.05310  3.05310  0.00000 -0.10620
       5     C     3.06321  3.06321  0.00000 -0.12642
       6     C     3.07427  3.07427  0.00000 -0.14854
       7     C     2.74219  2.74219  0.00000  0.51562
       8     H     0.41336  0.41336  0.00000  0.17328
       9     H     0.40683  0.40683  0.00000  0.18634
      10     H     0.40598  0.40598  0.00000  0.18803
      11     H     0.40680  0.40680  0.00000  0.18639
      12     H     0.41343  0.41343  0.00000  0.17314
      13     N     3.84805  3.84805  0.00000 -0.69610
      14     N     3.84899  3.84899  0.00000 -0.69798
      15     H     0.30518  0.30518  0.00000  0.38964
      16     H     0.29659  0.29659  0.00000  0.40682
      17     H     0.29621  0.29621  0.00000  0.40759
      18     H     0.30536  0.30536  0.00000  0.38927

   Total alpha = 32.00000, Total beta = 32.00000, Total charge =  1.00000

*** Psi4 exiting successfully. Buy a developer a beer!
