                               Psi4 1.1 release

  ==> Input File <==

--------------------------------------------------------------------------
set_num_threads( 8 )
memory 2.000000 gb

set { reference rks }
set { basis cc-pVDZ }

molecule MOL {
    0 1
    noreorient
    nocom
    symmetry c1
    O    1.050400   0.042900  -0.048100
    C    2.474100   0.047400  -0.029000
    C    3.002600  -1.068900  -0.932000
    N    4.001073  -1.896994  -0.257603
    H    0.760400   0.728400   0.578000
    H    2.809900  -0.097900   1.003200
    H    2.817400   1.026800  -0.378600
    H    3.434245  -0.636980  -1.842421
    H    2.166101  -1.697607  -1.257657
    H    4.829444  -1.335458  -0.062770
    H    4.305556  -2.630333  -0.897724
}

set optking { frozen_dihedral = (" 1 2 3 4 ") }

energy, wfn = energy('B3LYP-D3', return_wfn=True)

import os
os.chdir(os.environ['HTMD_PSI4_WORKDIR'])

oeprop(wfn, 'DIPOLE', 'QUADRUPOLE', 'MULLIKEN_CHARGES')

with open('psi4out.xyz', 'w') as f:
    f.write('11 ' )
    f.write('%.12f\n' % energy)
    f.write(MOL.save_string_xyz())
--------------------------------------------------------------------------

    Molecular point group: c1

    Geometry (in Angstrom), charge = 0, multiplicity = 1:

       Center              X                  Y                   Z               Mass
    ------------   -----------------  -----------------  -----------------  -----------------
           O          1.050400000000     0.042900000000    -0.048100000000    15.994914619560
           C          2.474100000000     0.047400000000    -0.029000000000    12.000000000000
           C          3.002600000000    -1.068900000000    -0.932000000000    12.000000000000
           N          4.001073000000    -1.896994000000    -0.257603000000    14.003074004780
           H          0.760400000000     0.728400000000     0.578000000000     1.007825032070
           H          2.809900000000    -0.097900000000     1.003200000000     1.007825032070
           H          2.817400000000     1.026800000000    -0.378600000000     1.007825032070
           H          3.434245000000    -0.636980000000    -1.842421000000     1.007825032070
           H          2.166101000000    -1.697607000000    -1.257657000000     1.007825032070
           H          4.829444000000    -1.335458000000    -0.062770000000     1.007825032070
           H          4.305556000000    -2.630333000000    -0.897724000000     1.007825032070

  Charge       = 0
  Multiplicity = 1
  Basis Set: CC-PVDZ
    Blend: CC-PVDZ
   => B3LYP Composite Functional <=
  Basis Set: (CC-PVDZ AUX)
    Blend: CC-PVDZ-JKFIT

    Orbital Energies (a.u.)
    -----------------------

    Doubly Occupied:

       1A    -19.124847     2A    -14.303913     3A    -10.221946
       4A    -10.200736     5A     -1.007564     6A     -0.876146
       7A     -0.712312     8A     -0.596726     9A     -0.507351
      10A     -0.474500    11A     -0.470180    12A     -0.398511
      13A     -0.388990    14A     -0.369043    15A     -0.322804
      16A     -0.257445    17A     -0.230241

  @DF-RKS Final Energy:  -210.38635545039375

   => Energetics <=

    Nuclear Repulsion Energy =            130.8061197436911414
    One-Electron Energy =                -544.5748903241463950
    Two-Electron Energy =                 226.8764933337287459
    DFT Exchange-Correlation Energy =     -23.4893731936672481
    Empirical Dispersion Energy =          -0.0047050100000000
    PCM Polarization Energy =               0.0000000000000000
    EFP Energy =                            0.0000000000000000
    Total Energy =                       -210.3863554503937507

  Mulliken Charges: (a.u.)
   Center  Symbol    Alpha    Beta     Spin     Total
       1     O     4.14033  4.14033  0.00000 -0.28066
       2     C     2.92653  2.92653  0.00000  0.14694
       3     C     2.98284  2.98284  0.00000  0.03433
       4     N     3.59150  3.59150  0.00000 -0.18301
       5     H     0.43156  0.43156  0.00000  0.13688
       6     H     0.50098  0.50098  0.00000 -0.00197
       7     H     0.50408  0.50408  0.00000 -0.00816
       8     H     0.50455  0.50455  0.00000 -0.00911
       9     H     0.48591  0.48591  0.00000  0.02818
      10     H     0.46653  0.46653  0.00000  0.06694
      11     H     0.46518  0.46518  0.00000  0.06964

   Total alpha = 17.00000, Total beta = 17.00000, Total charge = -0.00000

*** Psi4 exiting successfully. Buy a developer a beer!
