                               Psi4 1.1 release

  ==> Input File <==

--------------------------------------------------------------------------
set_num_threads(1)
set_memory(4203741184)

set { reference rks }
set { basis cc-pVDZ }

molecule MOL {
    0 1
    noreorient
    nocom
    symmetry c1
    O    1.050400   0.042900  -0.048100
    C    2.474100   0.047400  -0.029000
    C    3.002600  -1.068900  -0.932000
    N    3.204338  -0.616068  -2.307407
    H    0.760400   0.728400   0.578000
    H    2.809900  -0.097900   1.003200
    H    2.817400   1.026800  -0.378600
    H    2.307613  -1.916595  -0.919931
    H    3.949998  -1.443345  -0.527915
    H    2.302582  -0.381321  -2.721186
    H    3.570136  -1.392687  -2.858139
}

set optking { frozen_dihedral = (" 1 2 3 4 ") }

energy, wfn = energy('B3LYP-D3', return_wfn=True)

import os
os.chdir(os.environ['HTMD_PSI4_WORKDIR'])

oeprop(wfn, 'DIPOLE', 'QUADRUPOLE', 'MULLIKEN_CHARGES')

with open('psi4out.xyz', 'w') as f:
    f.write('11 ' )
    f.write('%.12f\n' % energy)
    f.write(MOL.save_string_xyz())
--------------------------------------------------------------------------

    Molecular point group: c1

    Geometry (in Angstrom), charge = 0, multiplicity = 1:

       Center              X                  Y                   Z               Mass
    ------------   -----------------  -----------------  -----------------  -----------------
           O          1.050400000000     0.042900000000    -0.048100000000    15.994914619560
           C          2.474100000000     0.047400000000    -0.029000000000    12.000000000000
           C          3.002600000000    -1.068900000000    -0.932000000000    12.000000000000
           N          3.204338000000    -0.616068000000    -2.307407000000    14.003074004780
           H          0.760400000000     0.728400000000     0.578000000000     1.007825032070
           H          2.809900000000    -0.097900000000     1.003200000000     1.007825032070
           H          2.817400000000     1.026800000000    -0.378600000000     1.007825032070
           H          2.307613000000    -1.916595000000    -0.919931000000     1.007825032070
           H          3.949998000000    -1.443345000000    -0.527915000000     1.007825032070
           H          2.302582000000    -0.381321000000    -2.721186000000     1.007825032070
           H          3.570136000000    -1.392687000000    -2.858139000000     1.007825032070

  Charge       = 0
  Multiplicity = 1
  Basis Set: CC-PVDZ
    Blend: CC-PVDZ
   => B3LYP Composite Functional <=
  Basis Set: (CC-PVDZ AUX)
    Blend: CC-PVDZ-JKFIT

    Orbital Energies (a.u.)
    -----------------------

    Doubly Occupied:

       1A    -19.126109     2A    -14.299421     3A    -10.222096
       4A    -10.201582     5A     -1.009170     6A     -0.872132
       7A     -0.713040     8A     -0.594617     9A     -0.511875
      10A     -0.479197    11A     -0.452887    12A     -0.405181
      13A     -0.392976    14A     -0.363864    15A     -0.324656
      16A     -0.260550    17A     -0.226877

  @DF-RKS Final Energy:  -210.39085427323965

   => Energetics <=

    Nuclear Repulsion Energy =            131.9117791449692731
    One-Electron Energy =                -546.8096803357800582
    Two-Electron Energy =                 227.9999100070023133
    DFT Exchange-Correlation Energy =     -23.4879537894311667
    Empirical Dispersion Energy =          -0.0049093000000000
    PCM Polarization Energy =               0.0000000000000000
    EFP Energy =                            0.0000000000000000
    Total Energy =                       -210.3908542732396540

  Mulliken Charges: (a.u.)
   Center  Symbol    Alpha    Beta     Spin     Total
       1     O     4.14182  4.14182  0.00000 -0.28365
       2     C     2.92941  2.92941  0.00000  0.14117
       3     C     2.97818  2.97818  0.00000  0.04364
       4     N     3.59247  3.59247  0.00000 -0.18495
       5     H     0.43115  0.43115  0.00000  0.13770
       6     H     0.50397  0.50397  0.00000 -0.00794
       7     H     0.49923  0.49923  0.00000  0.00155
       8     H     0.49867  0.49867  0.00000  0.00267
       9     H     0.49577  0.49577  0.00000  0.00847
      10     H     0.46265  0.46265  0.00000  0.07470
      11     H     0.46668  0.46668  0.00000  0.06664

   Total alpha = 17.00000, Total beta = 17.00000, Total charge =  0.00000

*** Psi4 exiting successfully. Buy a developer a beer!
