                               Psi4 1.1 release

  ==> Input File <==

--------------------------------------------------------------------------
set_num_threads(1)
set_memory(4203741184)

set { reference rks }
set { basis cc-pVDZ }

molecule MOL {
    0 1
    noreorient
    nocom
    symmetry c1
    O    1.014300  -0.002300   0.060500
    O    2.462400  -0.107500  -0.002400
    H    0.821200  -0.823600  -0.430600
    H    2.573706  -0.613294   0.825017
}

set optking { frozen_dihedral = (" 3 1 2 4 ") }

set optking { dynamic_level = 1
 geom_maxiter = 250
 print_trajectory_xyz_file = True }

energy, wfn = optimize('B3LYP-D3', return_wfn=True)

import os
os.chdir(os.environ['HTMD_PSI4_WORKDIR'])

oeprop(wfn, 'DIPOLE', 'QUADRUPOLE', 'MULLIKEN_CHARGES')

with open('psi4out.xyz', 'w') as f:
    f.write('4 ' )
    f.write('%.12f\n' % energy)
    f.write(MOL.save_string_xyz())
--------------------------------------------------------------------------

    Molecular point group: c1
  Charge       = 0
  Multiplicity = 1
  Basis Set: CC-PVDZ
    Blend: CC-PVDZ
   => B3LYP Composite Functional <=
  Basis Set: (CC-PVDZ AUX)
    Blend: CC-PVDZ-JKFIT
  @DF-RKS Final Energy:  -151.54862898856118
    Total Energy =                       -151.5486289885612052
    Molecular point group: c1
  Basis Set: CC-PVDZ
    Blend: CC-PVDZ
  Basis Set: (CC-PVDZ AUX)
    Blend: CC-PVDZ-JKFIT
   => B3LYP Composite Functional <=
  Basis Set: CC-PVDZ
    Blend: CC-PVDZ
   => B3LYP Composite Functional <=
  Basis Set: (CC-PVDZ AUX)
    Blend: CC-PVDZ-JKFIT
  @DF-RKS Final Energy:  -151.54961701824240
    Total Energy =                       -151.5496170182424009
  Basis Set: CC-PVDZ
    Blend: CC-PVDZ
  Basis Set: (CC-PVDZ AUX)
  @DF-RKS Final Energy:  -151.55008692912190
    Total Energy =                       -151.5500869291219317
   => B3LYP Composite Functional <=
  Basis Set: (CC-PVDZ AUX)
    Blend: CC-PVDZ-JKFIT
  @DF-RKS Final Energy:  -151.55010304418650
    Total Energy =                       -151.5501030441864998
  Basis Set: CC-PVDZ
    Blend: CC-PVDZ
  Basis Set: (CC-PVDZ AUX)
    Blend: CC-PVDZ-JKFIT
   => B3LYP Composite Functional <=
  Charge       = 0
  Multiplicity = 1
  Basis Set: CC-PVDZ
    Blend: CC-PVDZ
   => B3LYP Composite Functional <=
  Basis Set: (CC-PVDZ AUX)
    Blend: CC-PVDZ-JKFIT

    Orbital Energies (a.u.)
    -----------------------

    Doubly Occupied:

       1A    -19.188774     2A    -19.188736     3A     -1.111623
       4A     -0.889013     5A     -0.536195     6A     -0.466451
       7A     -0.414907     8A     -0.290113     9A     -0.288283

  @DF-RKS Final Energy:  -151.55010414598658

   => Energetics <=

    Nuclear Repulsion Energy =             36.7798165443436886
    One-Electron Energy =                -281.5276981669834413
    Two-Electron Energy =                 107.6596218599593726
    DFT Exchange-Correlation Energy =     -14.4615035133061998
    Empirical Dispersion Energy =          -0.0003408700000000
    PCM Polarization Energy =               0.0000000000000000
    EFP Energy =                            0.0000000000000000
    Total Energy =                       -151.5501041459865803
    Molecular point group: c1
  Basis Set: CC-PVDZ
    Blend: CC-PVDZ
  Basis Set: (CC-PVDZ AUX)
    Blend: CC-PVDZ-JKFIT
   => B3LYP Composite Functional <=

  -Total Gradient:
     Atom            X                  Y                   Z
    ------   -----------------  -----------------  -----------------
       1        0.000087421754     0.001209851309    -0.002699290255
       2        0.000131706955     0.002347175243     0.001797449877
       3       -0.000052779506    -0.001332014187     0.002233313102
       4       -0.000166569551    -0.002228580844    -0.001330568076

  **** Optimization is complete! (in 5 steps) ****
    Final optimized geometry and variables:
    Molecular point group: c1

    Geometry (in Angstrom), charge = 0, multiplicity = 1:

    O            1.015900782325    -0.013280995247     0.037446630881
    O            2.460207935364    -0.105934314851     0.023009534459
    H            0.767668684978    -0.820216457570    -0.450147083339
    H            2.627828597333    -0.607262232332     0.842207917998

  Mulliken Charges: (a.u.)
   Center  Symbol    Alpha    Beta     Spin     Total
       1     O     4.08743  4.08743  0.00000 -0.17486
       2     O     4.08743  4.08743  0.00000 -0.17486
       3     H     0.41257  0.41257  0.00000  0.17486
       4     H     0.41257  0.41257  0.00000  0.17486

   Total alpha =  9.00000, Total beta =  9.00000, Total charge = -0.00000

*** Psi4 exiting successfully. Buy a developer a beer!
