                               Psi4 1.1 release

  ==> Input File <==

--------------------------------------------------------------------------
set_num_threads(1)
set_memory(4203741184)

set { reference rks }
set { basis cc-pVDZ }

molecule MOL {
    0 1
    noreorient
    nocom
    symmetry c1
    O    1.050400   0.042900  -0.048100
    C    2.474100   0.047400  -0.029000
    C    3.002600  -1.068900  -0.932000
    N    4.462700  -1.072400  -1.006800
    H    0.760400   0.728400   0.578000
    H    2.809900  -0.097900   1.003200
    H    2.817400   1.026800  -0.378600
    H    2.581000  -0.963300  -1.938400
    H    2.653800  -2.036400  -0.553400
    H    4.761621  -1.715471  -1.739322
    H    4.834902  -1.449857  -0.135455
}

set optking { frozen_dihedral = (" 2 3 4 10 ") }

energy, wfn = energy('B3LYP-D3', return_wfn=True)

import os
os.chdir(os.environ['HTMD_PSI4_WORKDIR'])

oeprop(wfn, 'DIPOLE', 'QUADRUPOLE', 'MULLIKEN_CHARGES')

with open('psi4out.xyz', 'w') as f:
    f.write('11 ' )
    f.write('%.12f\n' % energy)
    f.write(MOL.save_string_xyz())
--------------------------------------------------------------------------

    Molecular point group: c1

    Geometry (in Angstrom), charge = 0, multiplicity = 1:

       Center              X                  Y                   Z               Mass
    ------------   -----------------  -----------------  -----------------  -----------------
           O          1.050400000000     0.042900000000    -0.048100000000    15.994914619560
           C          2.474100000000     0.047400000000    -0.029000000000    12.000000000000
           C          3.002600000000    -1.068900000000    -0.932000000000    12.000000000000
           N          4.462700000000    -1.072400000000    -1.006800000000    14.003074004780
           H          0.760400000000     0.728400000000     0.578000000000     1.007825032070
           H          2.809900000000    -0.097900000000     1.003200000000     1.007825032070
           H          2.817400000000     1.026800000000    -0.378600000000     1.007825032070
           H          2.581000000000    -0.963300000000    -1.938400000000     1.007825032070
           H          2.653800000000    -2.036400000000    -0.553400000000     1.007825032070
           H          4.761621000000    -1.715471000000    -1.739322000000     1.007825032070
           H          4.834902000000    -1.449857000000    -0.135455000000     1.007825032070

  Charge       = 0
  Multiplicity = 1
  Basis Set: CC-PVDZ
    Blend: CC-PVDZ
   => B3LYP Composite Functional <=
  Basis Set: (CC-PVDZ AUX)
    Blend: CC-PVDZ-JKFIT

    Orbital Energies (a.u.)
    -----------------------

    Doubly Occupied:

       1A    -19.125849     2A    -14.305373     3A    -10.221818
       4A    -10.201834     5A     -1.008229     6A     -0.876932
       7A     -0.711634     8A     -0.595527     9A     -0.505439
      10A     -0.487352    11A     -0.453465    12A     -0.413730
      13A     -0.391017    14A     -0.360036    15A     -0.322970
      16A     -0.259309    17A     -0.231997

  @DF-RKS Final Energy:  -210.39120157386603

   => Energetics <=

    Nuclear Repulsion Energy =            130.3601691064542649
    One-Electron Energy =                -543.6757939929512986
    Two-Electron Energy =                 226.4157149260764754
    DFT Exchange-Correlation Energy =     -23.4864187034454552
    Empirical Dispersion Energy =          -0.0048729100000000
    PCM Polarization Energy =               0.0000000000000000
    EFP Energy =                            0.0000000000000000
    Total Energy =                       -210.3912015738660273

  Mulliken Charges: (a.u.)
   Center  Symbol    Alpha    Beta     Spin     Total
       1     O     4.13983  4.13983  0.00000 -0.27967
       2     C     2.92702  2.92702  0.00000  0.14596
       3     C     2.98801  2.98801  0.00000  0.02397
       4     N     3.59198  3.59198  0.00000 -0.18397
       5     H     0.42989  0.42989  0.00000  0.14022
       6     H     0.50499  0.50499  0.00000 -0.00997
       7     H     0.49885  0.49885  0.00000  0.00230
       8     H     0.48967  0.48967  0.00000  0.02066
       9     H     0.50113  0.50113  0.00000 -0.00226
      10     H     0.46318  0.46318  0.00000  0.07365
      11     H     0.46545  0.46545  0.00000  0.06911

   Total alpha = 17.00000, Total beta = 17.00000, Total charge = -0.00000

*** Psi4 exiting successfully. Buy a developer a beer!
