                              Psi4 1.0.54 Driver

  ==> Input File <==

--------------------------------------------------------------------------
set_num_threads(1)
set_memory(3145728000)

set { reference rks }
set { basis 6-31G* }

molecule MOL {
    1 1
    noreorient
    nocom
    symmetry c1
    C    0.000000   0.000000  -0.177864
    C    0.036678   1.219374   0.524165
    C    0.031764   1.213119   1.915444
    C   -0.000000  -0.000000   2.610107
    C   -0.031764  -1.213119   1.915444
    C   -0.036677  -1.219374   0.524165
    C    0.000000  -0.000000  -1.644734
    H    0.018170   2.164705  -0.010853
    H    0.042402   2.152895   2.457886
    H   -0.000000  -0.000000   3.695756
    H   -0.042402  -2.152895   2.457886
    H   -0.018170  -2.164705  -0.010853
    N    0.767100   0.860283  -2.308461
    N   -0.767100  -0.860283  -2.308460
    H   -0.734216  -0.963026  -3.315997
    H   -1.466203  -1.398215  -1.813316
    H    1.466204   1.398215  -1.813317
    H    0.734216   0.963025  -3.315997
}

set optking { frozen_dihedral = (" 2 1 7 13 ") }

set optking { dynamic_level = 1
 geom_maxiter = 250
 print_trajectory_xyz_file = True }

energy, wfn = optimize('B3LYP-D3', return_wfn=True)

import os
os.chdir(os.environ['HTMD_PSI4_WORKDIR'])

oeprop(wfn, 'DIPOLE', 'QUADRUPOLE', 'MULLIKEN_CHARGES')

with open('psi4out.xyz', 'w') as f:
    f.write('18 ' )
    f.write('%.12f\n' % energy)
    f.write(MOL.save_string_xyz())
--------------------------------------------------------------------------

    Molecular point group: c1
  Charge       = 1
  Multiplicity = 1
  Basis Set: 6-31G*
   => B3LYP-D3 Composite Functional <=
  Basis Set:
  @DF-RKS Final Energy:  -381.47041209013270
    Total Energy =                       -381.4704120901326974
    Molecular point group: c1
  Basis Set: 6-31G*
  Basis Set:
   => B3LYP-D3 Composite Functional <=
  Basis Set: 6-31G*
   => B3LYP-D3 Composite Functional <=
  Basis Set:
  @DF-RKS Final Energy:  -381.47043112595111
    Total Energy =                       -381.4704311259511087
  Basis Set: 6-31G*
  Basis Set:
   => B3LYP-D3 Composite Functional <=
  Basis Set: 6-31G*
   => B3LYP-D3 Composite Functional <=
  Basis Set:
  @DF-RKS Final Energy:  -381.47044771838586
    Total Energy =                       -381.4704477183857421
  Basis Set: 6-31G*
  Basis Set:
   => B3LYP-D3 Composite Functional <=
  Charge       = 1
  Multiplicity = 1
  Basis Set: 6-31G*
   => B3LYP-D3 Composite Functional <=
  Basis Set:

    Orbital Energies (a.u.)
    -----------------------

    Doubly Occupied:

       1A    -14.568526     2A    -14.568517     3A    -10.497352
       4A    -10.372754     5A    -10.355655     6A    -10.355548
       7A    -10.342360     8A    -10.339997     9A    -10.339933
      10A     -1.184154    11A     -1.092455    12A     -1.013893
      13A     -0.926282    14A     -0.901714    15A     -0.845253
      16A     -0.785795    17A     -0.772926    18A     -0.742608
      19A     -0.732394    20A     -0.688913    21A     -0.668976
      22A     -0.624758    23A     -0.617901    24A     -0.585898
      25A     -0.578593    26A     -0.572428    27A     -0.518251
      28A     -0.504871    29A     -0.497648    30A     -0.473241
      31A     -0.411279    32A     -0.405255

  @DF-RKS Final Energy:  -381.47044845853048

   => Energetics <=

    Nuclear Repulsion Energy =            416.9162090438555310
    One-Electron Energy =               -1329.0531788114021765
    Two-Electron Energy =                 575.0843441059893166
    DFT Exchange-Correlation Energy =     -44.4058627169731892
    Empirical Dispersion Energy =          -0.0119600800000000
    PCM Polarization Energy =               0.0000000000000000
    EFP Energy =                            0.0000000000000000
    Total Energy =                       -381.4704484585304272
    Molecular point group: c1
  Basis Set: 6-31G*
  Basis Set:
   => B3LYP-D3 Composite Functional <=

  -Total Gradient:
     Atom            X                  Y                   Z
    ------   -----------------  -----------------  -----------------
       1        0.001525253087    -0.000321922468    -0.000032279125
       2       -0.000807125993     0.000048694601     0.000033687114
       3        0.000012437700    -0.000010006095     0.000000213281
       4       -0.000010594265     0.000005489927    -0.000004779747
       5       -0.000010144030     0.000003117601    -0.000002425149
       6        0.000009641181    -0.000023618889     0.000019654337
       7       -0.001445335058     0.000911934871     0.000034981175
       8        0.000007007545    -0.000012810686    -0.000009364765
       9       -0.000016319587     0.000000058108     0.000001048397
      10        0.000004660445     0.000002914762    -0.000003307747
      11        0.000005755976     0.000000809151    -0.000001729060
      12        0.000009480897     0.000011783143    -0.000003696717
      13        0.000631473632    -0.000570648334    -0.000020594791
      14        0.000036025017    -0.000013880676    -0.000017684368
      15        0.000006357725    -0.000005947824    -0.000005575936
      16        0.000015836113     0.000010013820    -0.000001956012
      17        0.000012727403    -0.000025984469     0.000002868470
      18        0.000011916211    -0.000010915729    -0.000009148431

  **** Optimization is complete! (in 4 steps) ****
    Final optimized geometry and variables:
    Molecular point group: c1

    Geometry (in Angstrom), charge = 1, multiplicity = 1:

    C            0.008418710591     0.000095911284    -0.177907946309
    C            0.045595651165     1.219631267036     0.523094884217
    C            0.035120681089     1.212918147388     1.914574632599
    C           -0.004053758544    -0.000355142086     2.608459047194
    C           -0.039312622851    -1.213331716014     1.913583921857
    C           -0.040915802661    -1.219546789380     0.522142285415
    C            0.000550446798     0.002288905636    -1.645317259354
    H            0.036870527712     2.164007269590    -0.013908305280
    H            0.046970284024     2.152398097513     2.457543146227
    H           -0.007894205339    -0.000662374385     3.694104717388
    H           -0.057018338786    -2.153021749221     2.456029088861
    H           -0.030849323848    -2.163730412126    -0.015145273519
    N            0.762453658167     0.866387855918    -2.309108911377
    N           -0.758515851410    -0.867737963635    -2.304559192856
    H           -0.729848117136    -0.971903544060    -3.312219276617
    H           -1.445333128604    -1.416043693535    -1.803403880159
    H            1.449804381556     1.416422670940    -1.810549299048
    H            0.727958808077     0.972182259137    -3.316411379240

  Mulliken Charges: (a.u.)
   Center  Symbol    Alpha    Beta     Spin     Total
       1     C     2.96014  2.96014  0.00000  0.07972
       2     C     3.08109  3.08109  0.00000 -0.16219
       3     C     3.06242  3.06242  0.00000 -0.12484
       4     C     3.05159  3.05159  0.00000 -0.10317
       5     C     3.06266  3.06266  0.00000 -0.12531
       6     C     3.08138  3.08138  0.00000 -0.16276
       7     C     2.72412  2.72412  0.00000  0.55177
       8     H     0.41400  0.41400  0.00000  0.17200
       9     H     0.40554  0.40554  0.00000  0.18892
      10     H     0.40407  0.40407  0.00000  0.19187
      11     H     0.40554  0.40554  0.00000  0.18892
      12     H     0.41393  0.41393  0.00000  0.17215
      13     N     3.86153  3.86153  0.00000 -0.72306
      14     N     3.86198  3.86198  0.00000 -0.72397
      15     H     0.30565  0.30565  0.00000  0.38870
      16     H     0.29941  0.29941  0.00000  0.40118
      17     H     0.29928  0.29928  0.00000  0.40144
      18     H     0.30568  0.30568  0.00000  0.38865

   Total alpha = 32.00000, Total beta = 32.00000, Total charge =  1.00000

*** Psi4 exiting successfully. Buy a developer a beer!
