                               Psi4 1.1 release

  ==> Input File <==

--------------------------------------------------------------------------
set_num_threads(1)
set_memory(4203741184)

set { reference rks }
set { basis cc-pVDZ }

molecule MOL {
    0 1
    noreorient
    nocom
    symmetry c1
    O    1.014300  -0.002300   0.060500
    O    2.462400  -0.107500  -0.002400
    H    0.821200  -0.823600  -0.430600
    H    2.559518   0.230556  -0.912962
}

set optking { frozen_dihedral = (" 3 1 2 4 ") }

energy, wfn = energy('B3LYP-D3', return_wfn=True)

import os
os.chdir(os.environ['HTMD_PSI4_WORKDIR'])

oeprop(wfn, 'DIPOLE', 'QUADRUPOLE', 'MULLIKEN_CHARGES')

with open('psi4out.xyz', 'w') as f:
    f.write('4 ' )
    f.write('%.12f\n' % energy)
    f.write(MOL.save_string_xyz())
--------------------------------------------------------------------------

    Molecular point group: c1

    Geometry (in Angstrom), charge = 0, multiplicity = 1:

       Center              X                  Y                   Z               Mass
    ------------   -----------------  -----------------  -----------------  -----------------
           O          1.014300000000    -0.002300000000     0.060500000000    15.994914619560
           O          2.462400000000    -0.107500000000    -0.002400000000    15.994914619560
           H          0.821200000000    -0.823600000000    -0.430600000000     1.007825032070
           H          2.559518000000     0.230556000000    -0.912962000000     1.007825032070

  Charge       = 0
  Multiplicity = 1
  Basis Set: CC-PVDZ
    Blend: CC-PVDZ
   => B3LYP Composite Functional <=
  Basis Set: (CC-PVDZ AUX)
    Blend: CC-PVDZ-JKFIT

    Orbital Energies (a.u.)
    -----------------------

    Doubly Occupied:

       1A    -19.190357     2A    -19.190317     3A     -1.116173
       4A     -0.886923     5A     -0.532662     6A     -0.466489
       7A     -0.421884     8A     -0.300984     9A     -0.282568

  @DF-RKS Final Energy:  -151.54735355723719

   => Energetics <=

    Nuclear Repulsion Energy =             36.8296558668805787
    One-Electron Energy =                -281.5935619943939514
    Two-Electron Energy =                 107.6783195481267370
    DFT Exchange-Correlation Energy =     -14.4615206078505398
    Empirical Dispersion Energy =          -0.0002463700000000
    PCM Polarization Energy =               0.0000000000000000
    EFP Energy =                            0.0000000000000000
    Total Energy =                       -151.5473535572371873

  Mulliken Charges: (a.u.)
   Center  Symbol    Alpha    Beta     Spin     Total
       1     O     4.08687  4.08687  0.00000 -0.17375
       2     O     4.08686  4.08686  0.00000 -0.17371
       3     H     0.41313  0.41313  0.00000  0.17375
       4     H     0.41314  0.41314  0.00000  0.17371

   Total alpha =  9.00000, Total beta =  9.00000, Total charge =  0.00000

*** Psi4 exiting successfully. Buy a developer a beer!
